+ 0.1 0 2 tcp 40 ------- 0 0.0 3.0 0 0
- 0.1 0 2 tcp 40 ------- 0 0.0 3.0 0 0
+ 0.1 1 2 cbr 210 ------- 0 1.0 3.1 0 1
- 0.1 1 2 cbr 210 ------- 0 1.0 3.1 0 1
+ 0.10375 1 2 cbr 210 ------- 0 1.0 3.1 1 2
- 0.10375 1 2 cbr 210 ------- 0 1.0 3.1 1 2
+ 0.1075 1 2 cbr 210 ------- 0 1.0 3.1 2 3
- 0.1075 1 2 cbr 210 ------- 0 1.0 3.1 2 3
+ 0.11125 1 2 cbr 210 ------- 0 1.0 3.1 3 4
- 0.11125 1 2 cbr 210 ------- 0 1.0 3.1 3 4
+ 0.115 1 2 cbr 210 ------- 0 1.0 3.1 4 5
- 0.115 1 2 cbr 210 ------- 0 1.0 3.1 4 5
+ 0.11875 1 2 cbr 210 ------- 0 1.0 3.1 5 6
- 0.11875 1 2 cbr 210 ------- 0 1.0 3.1 5 6
+ 0.1225 1 2 cbr 210 ------- 0 1.0 3.1 6 7
- 0.1225 1 2 cbr 210 ------- 0 1.0 3.1 6 7
+ 0.12625 1 2 cbr 210 ------- 0 1.0 3.1 7 8
- 0.12625 1 2 cbr 210 ------- 0 1.0 3.1 7 8
+ 0.13 1 2 cbr 210 ------- 0 1.0 3.1 8 9
- 0.13 1 2 cbr 210 ------- 0 1.0 3.1 8 9
+ 0.13375 1 2 cbr 210 ------- 0 1.0 3.1 9 10
- 0.13375 1 2 cbr 210 ------- 0 1.0 3.1 9 10
+ 0.1375 1 2 cbr 210 ------- 0 1.0 3.1 10 11
- 0.1375 1 2 cbr 210 ------- 0 1.0 3.1 10 11
+ 0.14125 1 2 cbr 210 ------- 0 1.0 3.1 11 12
- 0.14125 1 2 cbr 210 ------- 0 1.0 3.1 11 12
+ 0.145 1 2 cbr 210 ------- 0 1.0 3.1 12 13
- 0.145 1 2 cbr 210 ------- 0 1.0 3.1 12 13
+ 0.14875 1 2 cbr 210 ------- 0 1.0 3.1 13 14
- 0.14875 1 2 cbr 210 ------- 0 1.0 3.1 13 14
+ 0.1525 1 2 cbr 210 ------- 0 1.0 3.1 14 15
- 0.1525 1 2 cbr 210 ------- 0 1.0 3.1 14 15
+ 0.15625 1 2 cbr 210 ------- 0 1.0 3.1 15 16
- 0.15625 1 2 cbr 210 ------- 0 1.0 3.1 15 16
+ 0.16 1 2 cbr 210 ------- 0 1.0 3.1 16 17
- 0.16 1 2 cbr 210 ------- 0 1.0 3.1 16 17
+ 0.16375 1 2 cbr 210 ------- 0 1.0 3.1 17 18
- 0.16375 1 2 cbr 210 ------- 0 1.0 3.1 17 18
+ 0.1675 1 2 cbr 210 ------- 0 1.0 3.1 18 19
- 0.1675 1 2 cbr 210 ------- 0 1.0 3.1 18 19
+ 0.17125 1 2 cbr 210 ------- 0 1.0 3.1 19 20
- 0.17125 1 2 cbr 210 ------- 0 1.0 3.1 19 20
+ 0.175 1 2 cbr 210 ------- 0 1.0 3.1 20 21
- 0.175 1 2 cbr 210 ------- 0 1.0 3.1 20 21
+ 0.17875 1 2 cbr 210 ------- 0 1.0 3.1 21 22
- 0.17875 1 2 cbr 210 ------- 0 1.0 3.1 21 22
r 0.18032 0 2 tcp 40 ------- 0 0.0 3.0 0 0
+ 0.18032 2 3 tcp 40 ------- 0 0.0 3.0 0 0
- 0.18032 2 3 tcp 40 ------- 0 0.0 3.0 0 0
r 0.18168 1 2 cbr 210 ------- 0 1.0 3.1 0 1
+ 0.18168 2 3 cbr 210 ------- 0 1.0 3.1 0 1
- 0.18168 2 3 cbr 210 ------- 0 1.0 3.1 0 1
+ 0.1825 1 2 cbr 210 ------- 0 1.0 3.1 22 23
- 0.1825 1 2 cbr 210 ------- 0 1.0 3.1 22 23
r 0.18543 1 2 cbr 210 ------- 0 1.0 3.1 1 2
+ 0.18543 2 3 cbr 210 ------- 0 1.0 3.1 1 2
- 0.18543 2 3 cbr 210 ------- 0 1.0 3.1 1 2
+ 0.18625 1 2 cbr 210 ------- 0 1.0 3.1 23 24
- 0.18625 1 2 cbr 210 ------- 0 1.0 3.1 23 24
r 0.18918 1 2 cbr 210 ------- 0 1.0 3.1 2 3
+ 0.18918 2 3 cbr 210 ------- 0 1.0 3.1 2 3
- 0.18918 2 3 cbr 210 ------- 0 1.0 3.1 2 3
+ 0.19 1 2 cbr 210 ------- 0 1.0 3.1 24 25
- 0.19 1 2 cbr 210 ------- 0 1.0 3.1 24 25
r 0.19293 1 2 cbr 210 ------- 0 1.0 3.1 3 4
+ 0.19293 2 3 cbr 210 ------- 0 1.0 3.1 3 4
- 0.19293 2 3 cbr 210 ------- 0 1.0 3.1 3 4
+ 0.19375 1 2 cbr 210 ------- 0 1.0 3.1 25 26
- 0.19375 1 2 cbr 210 ------- 0 1.0 3.1 25 26
r 0.19668 1 2 cbr 210 ------- 0 1.0 3.1 4 5
+ 0.19668 2 3 cbr 210 ------- 0 1.0 3.1 4 5
- 0.19668 2 3 cbr 210 ------- 0 1.0 3.1 4 5
+ 0.1975 1 2 cbr 210 ------- 0 1.0 3.1 26 27
- 0.1975 1 2 cbr 210 ------- 0 1.0 3.1 26 27
r 0.20043 1 2 cbr 210 ------- 0 1.0 3.1 5 6
+ 0.20043 2 3 cbr 210 ------- 0 1.0 3.1 5 6
- 0.20043 2 3 cbr 210 ------- 0 1.0 3.1 5 6
+ 0.20125 1 2 cbr 210 ------- 0 1.0 3.1 27 28
- 0.20125 1 2 cbr 210 ------- 0 1.0 3.1 27 28
r 0.20418 1 2 cbr 210 ------- 0 1.0 3.1 6 7
+ 0.20418 2 3 cbr 210 ------- 0 1.0 3.1 6 7
- 0.20418 2 3 cbr 210 ------- 0 1.0 3.1 6 7
+ 0.205 1 2 cbr 210 ------- 0 1.0 3.1 28 29
- 0.205 1 2 cbr 210 ------- 0 1.0 3.1 28 29
r 0.20793 1 2 cbr 210 ------- 0 1.0 3.1 7 8
+ 0.20793 2 3 cbr 210 ------- 0 1.0 3.1 7 8
- 0.20793 2 3 cbr 210 ------- 0 1.0 3.1 7 8
+ 0.20875 1 2 cbr 210 ------- 0 1.0 3.1 29 30
- 0.20875 1 2 cbr 210 ------- 0 1.0 3.1 29 30
r 0.21168 1 2 cbr 210 ------- 0 1.0 3.1 8 9
+ 0.21168 2 3 cbr 210 ------- 0 1.0 3.1 8 9
- 0.21168 2 3 cbr 210 ------- 0 1.0 3.1 8 9
+ 0.2125 1 2 cbr 210 ------- 0 1.0 3.1 30 31
- 0.2125 1 2 cbr 210 ------- 0 1.0 3.1 30 31
r 0.21543 1 2 cbr 210 ------- 0 1.0 3.1 9 10
+ 0.21543 2 3 cbr 210 ------- 0 1.0 3.1 9 10
- 0.21543 2 3 cbr 210 ------- 0 1.0 3.1 9 10
+ 0.21625 1 2 cbr 210 ------- 0 1.0 3.1 31 32
- 0.21625 1 2 cbr 210 ------- 0 1.0 3.1 31 32
r 0.21918 1 2 cbr 210 ------- 0 1.0 3.1 10 11
+ 0.21918 2 3 cbr 210 ------- 0 1.0 3.1 10 11
- 0.21918 2 3 cbr 210 ------- 0 1.0 3.1 10 11
+ 0.22 1 2 cbr 210 ------- 0 1.0 3.1 32 33
- 0.22 1 2 cbr 210 ------- 0 1.0 3.1 32 33
r 0.22293 1 2 cbr 210 ------- 0 1.0 3.1 11 12
+ 0.22293 2 3 cbr 210 ------- 0 1.0 3.1 11 12
- 0.22293 2 3 cbr 210 ------- 0 1.0 3.1 11 12
+ 0.22375 1 2 cbr 210 ------- 0 1.0 3.1 33 34
- 0.22375 1 2 cbr 210 ------- 0 1.0 3.1 33 34
r 0.22668 1 2 cbr 210 ------- 0 1.0 3.1 12 13
+ 0.22668 2 3 cbr 210 ------- 0 1.0 3.1 12 13
- 0.22668 2 3 cbr 210 ------- 0 1.0 3.1 12 13
+ 0.2275 1 2 cbr 210 ------- 0 1.0 3.1 34 35
- 0.2275 1 2 cbr 210 ------- 0 1.0 3.1 34 35
r 0.23043 1 2 cbr 210 ------- 0 1.0 3.1 13 14
+ 0.23043 2 3 cbr 210 ------- 0 1.0 3.1 13 14
- 0.23043 2 3 cbr 210 ------- 0 1.0 3.1 13 14
+ 0.23125 1 2 cbr 210 ------- 0 1.0 3.1 35 36
- 0.23125 1 2 cbr 210 ------- 0 1.0 3.1 35 36
r 0.23418 1 2 cbr 210 ------- 0 1.0 3.1 14 15
+ 0.23418 2 3 cbr 210 ------- 0 1.0 3.1 14 15
- 0.23418 2 3 cbr 210 ------- 0 1.0 3.1 14 15
+ 0.235 1 2 cbr 210 ------- 0 1.0 3.1 36 37
- 0.235 1 2 cbr 210 ------- 0 1.0 3.1 36 37
r 0.23793 1 2 cbr 210 ------- 0 1.0 3.1 15 16
+ 0.23793 2 3 cbr 210 ------- 0 1.0 3.1 15 16
- 0.23793 2 3 cbr 210 ------- 0 1.0 3.1 15 16
+ 0.23875 1 2 cbr 210 ------- 0 1.0 3.1 37 38
- 0.23875 1 2 cbr 210 ------- 0 1.0 3.1 37 38
r 0.24168 1 2 cbr 210 ------- 0 1.0 3.1 16 17
+ 0.24168 2 3 cbr 210 ------- 0 1.0 3.1 16 17
- 0.24168 2 3 cbr 210 ------- 0 1.0 3.1 16 17
+ 0.2425 1 2 cbr 210 ------- 0 1.0 3.1 38 39
- 0.2425 1 2 cbr 210 ------- 0 1.0 3.1 38 39
r 0.24543 1 2 cbr 210 ------- 0 1.0 3.1 17 18
+ 0.24543 2 3 cbr 210 ------- 0 1.0 3.1 17 18
- 0.24543 2 3 cbr 210 ------- 0 1.0 3.1 17 18
+ 0.24625 1 2 cbr 210 ------- 0 1.0 3.1 39 40
- 0.24625 1 2 cbr 210 ------- 0 1.0 3.1 39 40
r 0.24918 1 2 cbr 210 ------- 0 1.0 3.1 18 19
+ 0.24918 2 3 cbr 210 ------- 0 1.0 3.1 18 19
- 0.24918 2 3 cbr 210 ------- 0 1.0 3.1 18 19
+ 0.25 1 2 cbr 210 ------- 0 1.0 3.1 40 41
- 0.25 1 2 cbr 210 ------- 0 1.0 3.1 40 41
r 0.25293 1 2 cbr 210 ------- 0 1.0 3.1 19 20
+ 0.25293 2 3 cbr 210 ------- 0 1.0 3.1 19 20
- 0.25293 2 3 cbr 210 ------- 0 1.0 3.1 19 20
+ 0.25375 1 2 cbr 210 ------- 0 1.0 3.1 41 42
- 0.25375 1 2 cbr 210 ------- 0 1.0 3.1 41 42
r 0.25668 1 2 cbr 210 ------- 0 1.0 3.1 20 21
+ 0.25668 2 3 cbr 210 ------- 0 1.0 3.1 20 21
- 0.25668 2 3 cbr 210 ------- 0 1.0 3.1 20 21
+ 0.2575 1 2 cbr 210 ------- 0 1.0 3.1 42 43
- 0.2575 1 2 cbr 210 ------- 0 1.0 3.1 42 43
r 0.26043 1 2 cbr 210 ------- 0 1.0 3.1 21 22
+ 0.26043 2 3 cbr 210 ------- 0 1.0 3.1 21 22
- 0.26043 2 3 cbr 210 ------- 0 1.0 3.1 21 22
r 0.26064 2 3 tcp 40 ------- 0 0.0 3.0 0 0
+ 0.26064 3 2 ack 40 ------- 0 3.0 0.0 0 44
- 0.26064 3 2 ack 40 ------- 0 3.0 0.0 0 44
+ 0.26125 1 2 cbr 210 ------- 0 1.0 3.1 43 45
- 0.26125 1 2 cbr 210 ------- 0 1.0 3.1 43 45
r 0.26336 2 3 cbr 210 ------- 0 1.0 3.1 0 1
r 0.26418 1 2 cbr 210 ------- 0 1.0 3.1 22 23
+ 0.26418 2 3 cbr 210 ------- 0 1.0 3.1 22 23
- 0.26418 2 3 cbr 210 ------- 0 1.0 3.1 22 23
+ 0.265 1 2 cbr 210 ------- 0 1.0 3.1 44 46
- 0.265 1 2 cbr 210 ------- 0 1.0 3.1 44 46
r 0.26711 2 3 cbr 210 ------- 0 1.0 3.1 1 2
r 0.26793 1 2 cbr 210 ------- 0 1.0 3.1 23 24
+ 0.26793 2 3 cbr 210 ------- 0 1.0 3.1 23 24
- 0.26793 2 3 cbr 210 ------- 0 1.0 3.1 23 24
+ 0.26875 1 2 cbr 210 ------- 0 1.0 3.1 45 47
- 0.26875 1 2 cbr 210 ------- 0 1.0 3.1 45 47
r 0.27086 2 3 cbr 210 ------- 0 1.0 3.1 2 3
r 0.27168 1 2 cbr 210 ------- 0 1.0 3.1 24 25
+ 0.27168 2 3 cbr 210 ------- 0 1.0 3.1 24 25
- 0.27168 2 3 cbr 210 ------- 0 1.0 3.1 24 25
+ 0.2725 1 2 cbr 210 ------- 0 1.0 3.1 46 48
- 0.2725 1 2 cbr 210 ------- 0 1.0 3.1 46 48
r 0.27461 2 3 cbr 210 ------- 0 1.0 3.1 3 4
r 0.27543 1 2 cbr 210 ------- 0 1.0 3.1 25 26
+ 0.27543 2 3 cbr 210 ------- 0 1.0 3.1 25 26
- 0.27543 2 3 cbr 210 ------- 0 1.0 3.1 25 26
+ 0.27625 1 2 cbr 210 ------- 0 1.0 3.1 47 49
- 0.27625 1 2 cbr 210 ------- 0 1.0 3.1 47 49
r 0.27836 2 3 cbr 210 ------- 0 1.0 3.1 4 5
r 0.27918 1 2 cbr 210 ------- 0 1.0 3.1 26 27
+ 0.27918 2 3 cbr 210 ------- 0 1.0 3.1 26 27
- 0.27918 2 3 cbr 210 ------- 0 1.0 3.1 26 27
+ 0.28 1 2 cbr 210 ------- 0 1.0 3.1 48 50
- 0.28 1 2 cbr 210 ------- 0 1.0 3.1 48 50
r 0.28211 2 3 cbr 210 ------- 0 1.0 3.1 5 6
r 0.28293 1 2 cbr 210 ------- 0 1.0 3.1 27 28
+ 0.28293 2 3 cbr 210 ------- 0 1.0 3.1 27 28
- 0.28293 2 3 cbr 210 ------- 0 1.0 3.1 27 28
+ 0.28375 1 2 cbr 210 ------- 0 1.0 3.1 49 51
- 0.28375 1 2 cbr 210 ------- 0 1.0 3.1 49 51
r 0.28586 2 3 cbr 210 ------- 0 1.0 3.1 6 7
r 0.28668 1 2 cbr 210 ------- 0 1.0 3.1 28 29
+ 0.28668 2 3 cbr 210 ------- 0 1.0 3.1 28 29
- 0.28668 2 3 cbr 210 ------- 0 1.0 3.1 28 29
+ 0.2875 1 2 cbr 210 ------- 0 1.0 3.1 50 52
- 0.2875 1 2 cbr 210 ------- 0 1.0 3.1 50 52
r 0.28961 2 3 cbr 210 ------- 0 1.0 3.1 7 8
r 0.29043 1 2 cbr 210 ------- 0 1.0 3.1 29 30
+ 0.29043 2 3 cbr 210 ------- 0 1.0 3.1 29 30
- 0.29043 2 3 cbr 210 ------- 0 1.0 3.1 29 30
+ 0.29125 1 2 cbr 210 ------- 0 1.0 3.1 51 53
- 0.29125 1 2 cbr 210 ------- 0 1.0 3.1 51 53
r 0.29336 2 3 cbr 210 ------- 0 1.0 3.1 8 9
r 0.29418 1 2 cbr 210 ------- 0 1.0 3.1 30 31
+ 0.29418 2 3 cbr 210 ------- 0 1.0 3.1 30 31
- 0.29418 2 3 cbr 210 ------- 0 1.0 3.1 30 31
+ 0.295 1 2 cbr 210 ------- 0 1.0 3.1 52 54
- 0.295 1 2 cbr 210 ------- 0 1.0 3.1 52 54
r 0.29711 2 3 cbr 210 ------- 0 1.0 3.1 9 10
r 0.29793 1 2 cbr 210 ------- 0 1.0 3.1 31 32
+ 0.29793 2 3 cbr 210 ------- 0 1.0 3.1 31 32
- 0.29793 2 3 cbr 210 ------- 0 1.0 3.1 31 32
+ 0.29875 1 2 cbr 210 ------- 0 1.0 3.1 53 55
- 0.29875 1 2 cbr 210 ------- 0 1.0 3.1 53 55
r 0.30086 2 3 cbr 210 ------- 0 1.0 3.1 10 11
r 0.30168 1 2 cbr 210 ------- 0 1.0 3.1 32 33
+ 0.30168 2 3 cbr 210 ------- 0 1.0 3.1 32 33
- 0.30168 2 3 cbr 210 ------- 0 1.0 3.1 32 33
+ 0.3025 1 2 cbr 210 ------- 0 1.0 3.1 54 56
- 0.3025 1 2 cbr 210 ------- 0 1.0 3.1 54 56
r 0.30461 2 3 cbr 210 ------- 0 1.0 3.1 11 12
r 0.30543 1 2 cbr 210 ------- 0 1.0 3.1 33 34
+ 0.30543 2 3 cbr 210 ------- 0 1.0 3.1 33 34
- 0.30543 2 3 cbr 210 ------- 0 1.0 3.1 33 34
+ 0.30625 1 2 cbr 210 ------- 0 1.0 3.1 55 57
- 0.30625 1 2 cbr 210 ------- 0 1.0 3.1 55 57
r 0.30836 2 3 cbr 210 ------- 0 1.0 3.1 12 13
r 0.30918 1 2 cbr 210 ------- 0 1.0 3.1 34 35
+ 0.30918 2 3 cbr 210 ------- 0 1.0 3.1 34 35
- 0.30918 2 3 cbr 210 ------- 0 1.0 3.1 34 35
+ 0.31 1 2 cbr 210 ------- 0 1.0 3.1 56 58
- 0.31 1 2 cbr 210 ------- 0 1.0 3.1 56 58
r 0.31211 2 3 cbr 210 ------- 0 1.0 3.1 13 14
r 0.31293 1 2 cbr 210 ------- 0 1.0 3.1 35 36
+ 0.31293 2 3 cbr 210 ------- 0 1.0 3.1 35 36
- 0.31293 2 3 cbr 210 ------- 0 1.0 3.1 35 36
+ 0.31375 1 2 cbr 210 ------- 0 1.0 3.1 57 59
- 0.31375 1 2 cbr 210 ------- 0 1.0 3.1 57 59
r 0.31586 2 3 cbr 210 ------- 0 1.0 3.1 14 15
r 0.31668 1 2 cbr 210 ------- 0 1.0 3.1 36 37
+ 0.31668 2 3 cbr 210 ------- 0 1.0 3.1 36 37
- 0.31668 2 3 cbr 210 ------- 0 1.0 3.1 36 37
+ 0.3175 1 2 cbr 210 ------- 0 1.0 3.1 58 60
- 0.3175 1 2 cbr 210 ------- 0 1.0 3.1 58 60
r 0.31961 2 3 cbr 210 ------- 0 1.0 3.1 15 16
r 0.32043 1 2 cbr 210 ------- 0 1.0 3.1 37 38
+ 0.32043 2 3 cbr 210 ------- 0 1.0 3.1 37 38
- 0.32043 2 3 cbr 210 ------- 0 1.0 3.1 37 38
+ 0.32125 1 2 cbr 210 ------- 0 1.0 3.1 59 61
- 0.32125 1 2 cbr 210 ------- 0 1.0 3.1 59 61
r 0.32336 2 3 cbr 210 ------- 0 1.0 3.1 16 17
r 0.32418 1 2 cbr 210 ------- 0 1.0 3.1 38 39
+ 0.32418 2 3 cbr 210 ------- 0 1.0 3.1 38 39
- 0.32418 2 3 cbr 210 ------- 0 1.0 3.1 38 39
+ 0.325 1 2 cbr 210 ------- 0 1.0 3.1 60 62
- 0.325 1 2 cbr 210 ------- 0 1.0 3.1 60 62
r 0.32711 2 3 cbr 210 ------- 0 1.0 3.1 17 18
r 0.32793 1 2 cbr 210 ------- 0 1.0 3.1 39 40
+ 0.32793 2 3 cbr 210 ------- 0 1.0 3.1 39 40
- 0.32793 2 3 cbr 210 ------- 0 1.0 3.1 39 40
+ 0.32875 1 2 cbr 210 ------- 0 1.0 3.1 61 63
- 0.32875 1 2 cbr 210 ------- 0 1.0 3.1 61 63
r 0.33086 2 3 cbr 210 ------- 0 1.0 3.1 18 19
r 0.33168 1 2 cbr 210 ------- 0 1.0 3.1 40 41
+ 0.33168 2 3 cbr 210 ------- 0 1.0 3.1 40 41
- 0.33168 2 3 cbr 210 ------- 0 1.0 3.1 40 41
+ 0.3325 1 2 cbr 210 ------- 0 1.0 3.1 62 64
- 0.3325 1 2 cbr 210 ------- 0 1.0 3.1 62 64
r 0.33461 2 3 cbr 210 ------- 0 1.0 3.1 19 20
r 0.33543 1 2 cbr 210 ------- 0 1.0 3.1 41 42
+ 0.33543 2 3 cbr 210 ------- 0 1.0 3.1 41 42
- 0.33543 2 3 cbr 210 ------- 0 1.0 3.1 41 42
+ 0.33625 1 2 cbr 210 ------- 0 1.0 3.1 63 65
- 0.33625 1 2 cbr 210 ------- 0 1.0 3.1 63 65
r 0.33836 2 3 cbr 210 ------- 0 1.0 3.1 20 21
r 0.33918 1 2 cbr 210 ------- 0 1.0 3.1 42 43
+ 0.33918 2 3 cbr 210 ------- 0 1.0 3.1 42 43
- 0.33918 2 3 cbr 210 ------- 0 1.0 3.1 42 43
+ 0.34 1 2 cbr 210 ------- 0 1.0 3.1 64 66
- 0.34 1 2 cbr 210 ------- 0 1.0 3.1 64 66
r 0.34096 3 2 ack 40 ------- 0 3.0 0.0 0 44
+ 0.34096 2 0 ack 40 ------- 0 3.0 0.0 0 44
- 0.34096 2 0 ack 40 ------- 0 3.0 0.0 0 44
r 0.34211 2 3 cbr 210 ------- 0 1.0 3.1 21 22
r 0.34293 1 2 cbr 210 ------- 0 1.0 3.1 43 45
+ 0.34293 2 3 cbr 210 ------- 0 1.0 3.1 43 45
- 0.34293 2 3 cbr 210 ------- 0 1.0 3.1 43 45
+ 0.34375 1 2 cbr 210 ------- 0 1.0 3.1 65 67
- 0.34375 1 2 cbr 210 ------- 0 1.0 3.1 65 67
r 0.34586 2 3 cbr 210 ------- 0 1.0 3.1 22 23
r 0.34668 1 2 cbr 210 ------- 0 1.0 3.1 44 46
+ 0.34668 2 3 cbr 210 ------- 0 1.0 3.1 44 46
- 0.34668 2 3 cbr 210 ------- 0 1.0 3.1 44 46
+ 0.3475 1 2 cbr 210 ------- 0 1.0 3.1 66 68
- 0.3475 1 2 cbr 210 ------- 0 1.0 3.1 66 68
r 0.34961 2 3 cbr 210 ------- 0 1.0 3.1 23 24
r 0.35043 1 2 cbr 210 ------- 0 1.0 3.1 45 47
+ 0.35043 2 3 cbr 210 ------- 0 1.0 3.1 45 47
- 0.35043 2 3 cbr 210 ------- 0 1.0 3.1 45 47
+ 0.35125 1 2 cbr 210 ------- 0 1.0 3.1 67 69
- 0.35125 1 2 cbr 210 ------- 0 1.0 3.1 67 69
r 0.35336 2 3 cbr 210 ------- 0 1.0 3.1 24 25
r 0.35418 1 2 cbr 210 ------- 0 1.0 3.1 46 48
+ 0.35418 2 3 cbr 210 ------- 0 1.0 3.1 46 48
- 0.35418 2 3 cbr 210 ------- 0 1.0 3.1 46 48
+ 0.355 1 2 cbr 210 ------- 0 1.0 3.1 68 70
- 0.355 1 2 cbr 210 ------- 0 1.0 3.1 68 70
r 0.35711 2 3 cbr 210 ------- 0 1.0 3.1 25 26
r 0.35793 1 2 cbr 210 ------- 0 1.0 3.1 47 49
+ 0.35793 2 3 cbr 210 ------- 0 1.0 3.1 47 49
- 0.35793 2 3 cbr 210 ------- 0 1.0 3.1 47 49
+ 0.35875 1 2 cbr 210 ------- 0 1.0 3.1 69 71
- 0.35875 1 2 cbr 210 ------- 0 1.0 3.1 69 71
r 0.36086 2 3 cbr 210 ------- 0 1.0 3.1 26 27
r 0.36168 1 2 cbr 210 ------- 0 1.0 3.1 48 50
+ 0.36168 2 3 cbr 210 ------- 0 1.0 3.1 48 50
- 0.36168 2 3 cbr 210 ------- 0 1.0 3.1 48 50
+ 0.3625 1 2 cbr 210 ------- 0 1.0 3.1 70 72
- 0.3625 1 2 cbr 210 ------- 0 1.0 3.1 70 72
r 0.36461 2 3 cbr 210 ------- 0 1.0 3.1 27 28
r 0.36543 1 2 cbr 210 ------- 0 1.0 3.1 49 51
+ 0.36543 2 3 cbr 210 ------- 0 1.0 3.1 49 51
- 0.36543 2 3 cbr 210 ------- 0 1.0 3.1 49 51
+ 0.36625 1 2 cbr 210 ------- 0 1.0 3.1 71 73
- 0.36625 1 2 cbr 210 ------- 0 1.0 3.1 71 73
r 0.36836 2 3 cbr 210 ------- 0 1.0 3.1 28 29
r 0.36918 1 2 cbr 210 ------- 0 1.0 3.1 50 52
+ 0.36918 2 3 cbr 210 ------- 0 1.0 3.1 50 52
- 0.36918 2 3 cbr 210 ------- 0 1.0 3.1 50 52
+ 0.37 1 2 cbr 210 ------- 0 1.0 3.1 72 74
- 0.37 1 2 cbr 210 ------- 0 1.0 3.1 72 74
r 0.37211 2 3 cbr 210 ------- 0 1.0 3.1 29 30
r 0.37293 1 2 cbr 210 ------- 0 1.0 3.1 51 53
+ 0.37293 2 3 cbr 210 ------- 0 1.0 3.1 51 53
- 0.37293 2 3 cbr 210 ------- 0 1.0 3.1 51 53
+ 0.37375 1 2 cbr 210 ------- 0 1.0 3.1 73 75
- 0.37375 1 2 cbr 210 ------- 0 1.0 3.1 73 75
r 0.37586 2 3 cbr 210 ------- 0 1.0 3.1 30 31
r 0.37668 1 2 cbr 210 ------- 0 1.0 3.1 52 54
+ 0.37668 2 3 cbr 210 ------- 0 1.0 3.1 52 54
- 0.37668 2 3 cbr 210 ------- 0 1.0 3.1 52 54
+ 0.3775 1 2 cbr 210 ------- 0 1.0 3.1 74 76
- 0.3775 1 2 cbr 210 ------- 0 1.0 3.1 74 76
r 0.37961 2 3 cbr 210 ------- 0 1.0 3.1 31 32
r 0.38043 1 2 cbr 210 ------- 0 1.0 3.1 53 55
+ 0.38043 2 3 cbr 210 ------- 0 1.0 3.1 53 55
- 0.38043 2 3 cbr 210 ------- 0 1.0 3.1 53 55
+ 0.38125 1 2 cbr 210 ------- 0 1.0 3.1 75 77
- 0.38125 1 2 cbr 210 ------- 0 1.0 3.1 75 77
r 0.38336 2 3 cbr 210 ------- 0 1.0 3.1 32 33
r 0.38418 1 2 cbr 210 ------- 0 1.0 3.1 54 56
+ 0.38418 2 3 cbr 210 ------- 0 1.0 3.1 54 56
- 0.38418 2 3 cbr 210 ------- 0 1.0 3.1 54 56
+ 0.385 1 2 cbr 210 ------- 0 1.0 3.1 76 78
- 0.385 1 2 cbr 210 ------- 0 1.0 3.1 76 78
r 0.38711 2 3 cbr 210 ------- 0 1.0 3.1 33 34
r 0.38793 1 2 cbr 210 ------- 0 1.0 3.1 55 57
+ 0.38793 2 3 cbr 210 ------- 0 1.0 3.1 55 57
- 0.38793 2 3 cbr 210 ------- 0 1.0 3.1 55 57
+ 0.38875 1 2 cbr 210 ------- 0 1.0 3.1 77 79
- 0.38875 1 2 cbr 210 ------- 0 1.0 3.1 77 79
r 0.39086 2 3 cbr 210 ------- 0 1.0 3.1 34 35
r 0.39168 1 2 cbr 210 ------- 0 1.0 3.1 56 58
+ 0.39168 2 3 cbr 210 ------- 0 1.0 3.1 56 58
- 0.39168 2 3 cbr 210 ------- 0 1.0 3.1 56 58
+ 0.3925 1 2 cbr 210 ------- 0 1.0 3.1 78 80
- 0.3925 1 2 cbr 210 ------- 0 1.0 3.1 78 80
r 0.39461 2 3 cbr 210 ------- 0 1.0 3.1 35 36
r 0.39543 1 2 cbr 210 ------- 0 1.0 3.1 57 59
+ 0.39543 2 3 cbr 210 ------- 0 1.0 3.1 57 59
- 0.39543 2 3 cbr 210 ------- 0 1.0 3.1 57 59
+ 0.39625 1 2 cbr 210 ------- 0 1.0 3.1 79 81
- 0.39625 1 2 cbr 210 ------- 0 1.0 3.1 79 81
r 0.39836 2 3 cbr 210 ------- 0 1.0 3.1 36 37
r 0.39918 1 2 cbr 210 ------- 0 1.0 3.1 58 60
+ 0.39918 2 3 cbr 210 ------- 0 1.0 3.1 58 60
- 0.39918 2 3 cbr 210 ------- 0 1.0 3.1 58 60
+ 0.4 1 2 cbr 210 ------- 0 1.0 3.1 80 82
- 0.4 1 2 cbr 210 ------- 0 1.0 3.1 80 82
r 0.40211 2 3 cbr 210 ------- 0 1.0 3.1 37 38
r 0.40293 1 2 cbr 210 ------- 0 1.0 3.1 59 61
+ 0.40293 2 3 cbr 210 ------- 0 1.0 3.1 59 61
- 0.40293 2 3 cbr 210 ------- 0 1.0 3.1 59 61
+ 0.40375 1 2 cbr 210 ------- 0 1.0 3.1 81 83
- 0.40375 1 2 cbr 210 ------- 0 1.0 3.1 81 83
r 0.40586 2 3 cbr 210 ------- 0 1.0 3.1 38 39
r 0.40668 1 2 cbr 210 ------- 0 1.0 3.1 60 62
+ 0.40668 2 3 cbr 210 ------- 0 1.0 3.1 60 62
- 0.40668 2 3 cbr 210 ------- 0 1.0 3.1 60 62
+ 0.4075 1 2 cbr 210 ------- 0 1.0 3.1 82 84
- 0.4075 1 2 cbr 210 ------- 0 1.0 3.1 82 84
r 0.40961 2 3 cbr 210 ------- 0 1.0 3.1 39 40
r 0.41043 1 2 cbr 210 ------- 0 1.0 3.1 61 63
+ 0.41043 2 3 cbr 210 ------- 0 1.0 3.1 61 63
- 0.41043 2 3 cbr 210 ------- 0 1.0 3.1 61 63
+ 0.41125 1 2 cbr 210 ------- 0 1.0 3.1 83 85
- 0.41125 1 2 cbr 210 ------- 0 1.0 3.1 83 85
r 0.41336 2 3 cbr 210 ------- 0 1.0 3.1 40 41
r 0.41418 1 2 cbr 210 ------- 0 1.0 3.1 62 64
+ 0.41418 2 3 cbr 210 ------- 0 1.0 3.1 62 64
- 0.41418 2 3 cbr 210 ------- 0 1.0 3.1 62 64
+ 0.415 1 2 cbr 210 ------- 0 1.0 3.1 84 86
- 0.415 1 2 cbr 210 ------- 0 1.0 3.1 84 86
r 0.41711 2 3 cbr 210 ------- 0 1.0 3.1 41 42
r 0.41793 1 2 cbr 210 ------- 0 1.0 3.1 63 65
+ 0.41793 2 3 cbr 210 ------- 0 1.0 3.1 63 65
- 0.41793 2 3 cbr 210 ------- 0 1.0 3.1 63 65
+ 0.41875 1 2 cbr 210 ------- 0 1.0 3.1 85 87
- 0.41875 1 2 cbr 210 ------- 0 1.0 3.1 85 87
r 0.42086 2 3 cbr 210 ------- 0 1.0 3.1 42 43
r 0.42128 2 0 ack 40 ------- 0 3.0 0.0 0 44
+ 0.42128 0 2 tcp 1040 ------- 0 0.0 3.0 1 88
- 0.42128 0 2 tcp 1040 ------- 0 0.0 3.0 1 88
+ 0.42128 0 2 tcp 1040 ------- 0 0.0 3.0 2 89
r 0.42168 1 2 cbr 210 ------- 0 1.0 3.1 64 66
+ 0.42168 2 3 cbr 210 ------- 0 1.0 3.1 64 66
- 0.42168 2 3 cbr 210 ------- 0 1.0 3.1 64 66
+ 0.4225 1 2 cbr 210 ------- 0 1.0 3.1 86 90
- 0.4225 1 2 cbr 210 ------- 0 1.0 3.1 86 90
r 0.42461 2 3 cbr 210 ------- 0 1.0 3.1 43 45
r 0.42543 1 2 cbr 210 ------- 0 1.0 3.1 65 67
+ 0.42543 2 3 cbr 210 ------- 0 1.0 3.1 65 67
- 0.42543 2 3 cbr 210 ------- 0 1.0 3.1 65 67
+ 0.42625 1 2 cbr 210 ------- 0 1.0 3.1 87 91
- 0.42625 1 2 cbr 210 ------- 0 1.0 3.1 87 91
r 0.42836 2 3 cbr 210 ------- 0 1.0 3.1 44 46
r 0.42918 1 2 cbr 210 ------- 0 1.0 3.1 66 68
+ 0.42918 2 3 cbr 210 ------- 0 1.0 3.1 66 68
- 0.42918 2 3 cbr 210 ------- 0 1.0 3.1 66 68
- 0.4296 0 2 tcp 1040 ------- 0 0.0 3.0 2 89
+ 0.43 1 2 cbr 210 ------- 0 1.0 3.1 88 92
- 0.43 1 2 cbr 210 ------- 0 1.0 3.1 88 92
r 0.43211 2 3 cbr 210 ------- 0 1.0 3.1 45 47
r 0.43293 1 2 cbr 210 ------- 0 1.0 3.1 67 69
+ 0.43293 2 3 cbr 210 ------- 0 1.0 3.1 67 69
- 0.43293 2 3 cbr 210 ------- 0 1.0 3.1 67 69
+ 0.43375 1 2 cbr 210 ------- 0 1.0 3.1 89 93
- 0.43375 1 2 cbr 210 ------- 0 1.0 3.1 89 93
r 0.43586 2 3 cbr 210 ------- 0 1.0 3.1 46 48
r 0.43668 1 2 cbr 210 ------- 0 1.0 3.1 68 70
+ 0.43668 2 3 cbr 210 ------- 0 1.0 3.1 68 70
- 0.43668 2 3 cbr 210 ------- 0 1.0 3.1 68 70
+ 0.4375 1 2 cbr 210 ------- 0 1.0 3.1 90 94
- 0.4375 1 2 cbr 210 ------- 0 1.0 3.1 90 94
r 0.43961 2 3 cbr 210 ------- 0 1.0 3.1 47 49
r 0.44043 1 2 cbr 210 ------- 0 1.0 3.1 69 71
+ 0.44043 2 3 cbr 210 ------- 0 1.0 3.1 69 71
- 0.44043 2 3 cbr 210 ------- 0 1.0 3.1 69 71
+ 0.44125 1 2 cbr 210 ------- 0 1.0 3.1 91 95
- 0.44125 1 2 cbr 210 ------- 0 1.0 3.1 91 95
r 0.44336 2 3 cbr 210 ------- 0 1.0 3.1 48 50
r 0.44418 1 2 cbr 210 ------- 0 1.0 3.1 70 72
+ 0.44418 2 3 cbr 210 ------- 0 1.0 3.1 70 72
- 0.44418 2 3 cbr 210 ------- 0 1.0 3.1 70 72
+ 0.445 1 2 cbr 210 ------- 0 1.0 3.1 92 96
- 0.445 1 2 cbr 210 ------- 0 1.0 3.1 92 96
r 0.44711 2 3 cbr 210 ------- 0 1.0 3.1 49 51
r 0.44793 1 2 cbr 210 ------- 0 1.0 3.1 71 73
+ 0.44793 2 3 cbr 210 ------- 0 1.0 3.1 71 73
- 0.44793 2 3 cbr 210 ------- 0 1.0 3.1 71 73
+ 0.44875 1 2 cbr 210 ------- 0 1.0 3.1 93 97
- 0.44875 1 2 cbr 210 ------- 0 1.0 3.1 93 97
r 0.45086 2 3 cbr 210 ------- 0 1.0 3.1 50 52
r 0.45168 1 2 cbr 210 ------- 0 1.0 3.1 72 74
+ 0.45168 2 3 cbr 210 ------- 0 1.0 3.1 72 74
- 0.45168 2 3 cbr 210 ------- 0 1.0 3.1 72 74
+ 0.4525 1 2 cbr 210 ------- 0 1.0 3.1 94 98
- 0.4525 1 2 cbr 210 ------- 0 1.0 3.1 94 98
r 0.45461 2 3 cbr 210 ------- 0 1.0 3.1 51 53
r 0.45543 1 2 cbr 210 ------- 0 1.0 3.1 73 75
+ 0.45543 2 3 cbr 210 ------- 0 1.0 3.1 73 75
- 0.45543 2 3 cbr 210 ------- 0 1.0 3.1 73 75
+ 0.45625 1 2 cbr 210 ------- 0 1.0 3.1 95 99
- 0.45625 1 2 cbr 210 ------- 0 1.0 3.1 95 99
r 0.45836 2 3 cbr 210 ------- 0 1.0 3.1 52 54
r 0.45918 1 2 cbr 210 ------- 0 1.0 3.1 74 76
+ 0.45918 2 3 cbr 210 ------- 0 1.0 3.1 74 76
- 0.45918 2 3 cbr 210 ------- 0 1.0 3.1 74 76
+ 0.46 1 2 cbr 210 ------- 0 1.0 3.1 96 100
- 0.46 1 2 cbr 210 ------- 0 1.0 3.1 96 100
r 0.46211 2 3 cbr 210 ------- 0 1.0 3.1 53 55
r 0.46293 1 2 cbr 210 ------- 0 1.0 3.1 75 77
+ 0.46293 2 3 cbr 210 ------- 0 1.0 3.1 75 77
- 0.46293 2 3 cbr 210 ------- 0 1.0 3.1 75 77
+ 0.46375 1 2 cbr 210 ------- 0 1.0 3.1 97 101
- 0.46375 1 2 cbr 210 ------- 0 1.0 3.1 97 101
r 0.46586 2 3 cbr 210 ------- 0 1.0 3.1 54 56
r 0.46668 1 2 cbr 210 ------- 0 1.0 3.1 76 78
+ 0.46668 2 3 cbr 210 ------- 0 1.0 3.1 76 78
- 0.46668 2 3 cbr 210 ------- 0 1.0 3.1 76 78
+ 0.4675 1 2 cbr 210 ------- 0 1.0 3.1 98 102
- 0.4675 1 2 cbr 210 ------- 0 1.0 3.1 98 102
r 0.46961 2 3 cbr 210 ------- 0 1.0 3.1 55 57
r 0.47043 1 2 cbr 210 ------- 0 1.0 3.1 77 79
+ 0.47043 2 3 cbr 210 ------- 0 1.0 3.1 77 79
- 0.47043 2 3 cbr 210 ------- 0 1.0 3.1 77 79
+ 0.47125 1 2 cbr 210 ------- 0 1.0 3.1 99 103
- 0.47125 1 2 cbr 210 ------- 0 1.0 3.1 99 103
r 0.47336 2 3 cbr 210 ------- 0 1.0 3.1 56 58
r 0.47418 1 2 cbr 210 ------- 0 1.0 3.1 78 80
+ 0.47418 2 3 cbr 210 ------- 0 1.0 3.1 78 80
- 0.47418 2 3 cbr 210 ------- 0 1.0 3.1 78 80
+ 0.475 1 2 cbr 210 ------- 0 1.0 3.1 100 104
- 0.475 1 2 cbr 210 ------- 0 1.0 3.1 100 104
r 0.47711 2 3 cbr 210 ------- 0 1.0 3.1 57 59
r 0.47793 1 2 cbr 210 ------- 0 1.0 3.1 79 81
+ 0.47793 2 3 cbr 210 ------- 0 1.0 3.1 79 81
- 0.47793 2 3 cbr 210 ------- 0 1.0 3.1 79 81
+ 0.47875 1 2 cbr 210 ------- 0 1.0 3.1 101 105
- 0.47875 1 2 cbr 210 ------- 0 1.0 3.1 101 105
r 0.48086 2 3 cbr 210 ------- 0 1.0 3.1 58 60
r 0.48168 1 2 cbr 210 ------- 0 1.0 3.1 80 82
+ 0.48168 2 3 cbr 210 ------- 0 1.0 3.1 80 82
- 0.48168 2 3 cbr 210 ------- 0 1.0 3.1 80 82
+ 0.4825 1 2 cbr 210 ------- 0 1.0 3.1 102 106
- 0.4825 1 2 cbr 210 ------- 0 1.0 3.1 102 106
r 0.48461 2 3 cbr 210 ------- 0 1.0 3.1 59 61
r 0.48543 1 2 cbr 210 ------- 0 1.0 3.1 81 83
+ 0.48543 2 3 cbr 210 ------- 0 1.0 3.1 81 83
- 0.48543 2 3 cbr 210 ------- 0 1.0 3.1 81 83
+ 0.48625 1 2 cbr 210 ------- 0 1.0 3.1 103 107
- 0.48625 1 2 cbr 210 ------- 0 1.0 3.1 103 107
r 0.48836 2 3 cbr 210 ------- 0 1.0 3.1 60 62
r 0.48918 1 2 cbr 210 ------- 0 1.0 3.1 82 84
+ 0.48918 2 3 cbr 210 ------- 0 1.0 3.1 82 84
- 0.48918 2 3 cbr 210 ------- 0 1.0 3.1 82 84
+ 0.49 1 2 cbr 210 ------- 0 1.0 3.1 104 108
- 0.49 1 2 cbr 210 ------- 0 1.0 3.1 104 108
r 0.49211 2 3 cbr 210 ------- 0 1.0 3.1 61 63
r 0.49293 1 2 cbr 210 ------- 0 1.0 3.1 83 85
+ 0.49293 2 3 cbr 210 ------- 0 1.0 3.1 83 85
- 0.49293 2 3 cbr 210 ------- 0 1.0 3.1 83 85
+ 0.49375 1 2 cbr 210 ------- 0 1.0 3.1 105 109
- 0.49375 1 2 cbr 210 ------- 0 1.0 3.1 105 109
r 0.49586 2 3 cbr 210 ------- 0 1.0 3.1 62 64
r 0.49668 1 2 cbr 210 ------- 0 1.0 3.1 84 86
+ 0.49668 2 3 cbr 210 ------- 0 1.0 3.1 84 86
- 0.49668 2 3 cbr 210 ------- 0 1.0 3.1 84 86
+ 0.4975 1 2 cbr 210 ------- 0 1.0 3.1 106 110
- 0.4975 1 2 cbr 210 ------- 0 1.0 3.1 106 110
r 0.49961 2 3 cbr 210 ------- 0 1.0 3.1 63 65
r 0.50043 1 2 cbr 210 ------- 0 1.0 3.1 85 87
+ 0.50043 2 3 cbr 210 ------- 0 1.0 3.1 85 87
- 0.50043 2 3 cbr 210 ------- 0 1.0 3.1 85 87
+ 0.50125 1 2 cbr 210 ------- 0 1.0 3.1 107 111
- 0.50125 1 2 cbr 210 ------- 0 1.0 3.1 107 111
r 0.50336 2 3 cbr 210 ------- 0 1.0 3.1 64 66
r 0.50418 1 2 cbr 210 ------- 0 1.0 3.1 86 90
+ 0.50418 2 3 cbr 210 ------- 0 1.0 3.1 86 90
- 0.50418 2 3 cbr 210 ------- 0 1.0 3.1 86 90
+ 0.505 1 2 cbr 210 ------- 0 1.0 3.1 108 112
- 0.505 1 2 cbr 210 ------- 0 1.0 3.1 108 112
r 0.50711 2 3 cbr 210 ------- 0 1.0 3.1 65 67
r 0.50793 1 2 cbr 210 ------- 0 1.0 3.1 87 91
+ 0.50793 2 3 cbr 210 ------- 0 1.0 3.1 87 91
- 0.50793 2 3 cbr 210 ------- 0 1.0 3.1 87 91
+ 0.50875 1 2 cbr 210 ------- 0 1.0 3.1 109 113
- 0.50875 1 2 cbr 210 ------- 0 1.0 3.1 109 113
r 0.5096 0 2 tcp 1040 ------- 0 0.0 3.0 1 88
+ 0.5096 2 3 tcp 1040 ------- 0 0.0 3.0 1 88
- 0.50961 2 3 tcp 1040 ------- 0 0.0 3.0 1 88
r 0.51086 2 3 cbr 210 ------- 0 1.0 3.1 66 68
r 0.51168 1 2 cbr 210 ------- 0 1.0 3.1 88 92
+ 0.51168 2 3 cbr 210 ------- 0 1.0 3.1 88 92
+ 0.5125 1 2 cbr 210 ------- 0 1.0 3.1 110 114
- 0.5125 1 2 cbr 210 ------- 0 1.0 3.1 110 114
r 0.51461 2 3 cbr 210 ------- 0 1.0 3.1 67 69
r 0.51543 1 2 cbr 210 ------- 0 1.0 3.1 89 93
+ 0.51543 2 3 cbr 210 ------- 0 1.0 3.1 89 93
+ 0.51625 1 2 cbr 210 ------- 0 1.0 3.1 111 115
- 0.51625 1 2 cbr 210 ------- 0 1.0 3.1 111 115
r 0.51792 0 2 tcp 1040 ------- 0 0.0 3.0 2 89
+ 0.51792 2 3 tcp 1040 ------- 0 0.0 3.0 2 89
- 0.51793 2 3 cbr 210 ------- 0 1.0 3.1 88 92
r 0.51836 2 3 cbr 210 ------- 0 1.0 3.1 68 70
r 0.51918 1 2 cbr 210 ------- 0 1.0 3.1 90 94
+ 0.51918 2 3 cbr 210 ------- 0 1.0 3.1 90 94
- 0.51961 2 3 cbr 210 ------- 0 1.0 3.1 89 93
+ 0.52 1 2 cbr 210 ------- 0 1.0 3.1 112 116
- 0.52 1 2 cbr 210 ------- 0 1.0 3.1 112 116
- 0.52129 2 3 tcp 1040 ------- 0 0.0 3.0 2 89
r 0.52211 2 3 cbr 210 ------- 0 1.0 3.1 69 71
r 0.52293 1 2 cbr 210 ------- 0 1.0 3.1 91 95
+ 0.52293 2 3 cbr 210 ------- 0 1.0 3.1 91 95
+ 0.52375 1 2 cbr 210 ------- 0 1.0 3.1 113 117
- 0.52375 1 2 cbr 210 ------- 0 1.0 3.1 113 117
r 0.52586 2 3 cbr 210 ------- 0 1.0 3.1 70 72
r 0.52668 1 2 cbr 210 ------- 0 1.0 3.1 92 96
+ 0.52668 2 3 cbr 210 ------- 0 1.0 3.1 92 96
+ 0.5275 1 2 cbr 210 ------- 0 1.0 3.1 114 118
- 0.5275 1 2 cbr 210 ------- 0 1.0 3.1 114 118
- 0.52961 2 3 cbr 210 ------- 0 1.0 3.1 90 94
r 0.52961 2 3 cbr 210 ------- 0 1.0 3.1 71 73
r 0.53043 1 2 cbr 210 ------- 0 1.0 3.1 93 97
+ 0.53043 2 3 cbr 210 ------- 0 1.0 3.1 93 97
+ 0.53125 1 2 cbr 210 ------- 0 1.0 3.1 115 119
- 0.53125 1 2 cbr 210 ------- 0 1.0 3.1 115 119
- 0.53129 2 3 cbr 210 ------- 0 1.0 3.1 91 95
- 0.53297 2 3 cbr 210 ------- 0 1.0 3.1 92 96
r 0.53336 2 3 cbr 210 ------- 0 1.0 3.1 72 74
r 0.53418 1 2 cbr 210 ------- 0 1.0 3.1 94 98
+ 0.53418 2 3 cbr 210 ------- 0 1.0 3.1 94 98
- 0.53465 2 3 cbr 210 ------- 0 1.0 3.1 93 97
+ 0.535 1 2 cbr 210 ------- 0 1.0 3.1 116 120
- 0.535 1 2 cbr 210 ------- 0 1.0 3.1 116 120
- 0.53633 2 3 cbr 210 ------- 0 1.0 3.1 94 98
r 0.53711 2 3 cbr 210 ------- 0 1.0 3.1 73 75
r 0.53793 1 2 cbr 210 ------- 0 1.0 3.1 95 99
+ 0.53793 2 3 cbr 210 ------- 0 1.0 3.1 95 99
- 0.53801 2 3 cbr 210 ------- 0 1.0 3.1 95 99
+ 0.53875 1 2 cbr 210 ------- 0 1.0 3.1 117 121
- 0.53875 1 2 cbr 210 ------- 0 1.0 3.1 117 121
r 0.54086 2 3 cbr 210 ------- 0 1.0 3.1 74 76
r 0.54168 1 2 cbr 210 ------- 0 1.0 3.1 96 100
+ 0.54168 2 3 cbr 210 ------- 0 1.0 3.1 96 100
- 0.54168 2 3 cbr 210 ------- 0 1.0 3.1 96 100
+ 0.5425 1 2 cbr 210 ------- 0 1.0 3.1 118 122
- 0.5425 1 2 cbr 210 ------- 0 1.0 3.1 118 122
r 0.54461 2 3 cbr 210 ------- 0 1.0 3.1 75 77
r 0.54543 1 2 cbr 210 ------- 0 1.0 3.1 97 101
+ 0.54543 2 3 cbr 210 ------- 0 1.0 3.1 97 101
- 0.54543 2 3 cbr 210 ------- 0 1.0 3.1 97 101
+ 0.54625 1 2 cbr 210 ------- 0 1.0 3.1 119 123
- 0.54625 1 2 cbr 210 ------- 0 1.0 3.1 119 123
r 0.54836 2 3 cbr 210 ------- 0 1.0 3.1 76 78
r 0.54918 1 2 cbr 210 ------- 0 1.0 3.1 98 102
+ 0.54918 2 3 cbr 210 ------- 0 1.0 3.1 98 102
- 0.54918 2 3 cbr 210 ------- 0 1.0 3.1 98 102
+ 0.55 1 2 cbr 210 ------- 0 1.0 3.1 120 124
- 0.55 1 2 cbr 210 ------- 0 1.0 3.1 120 124
r 0.55211 2 3 cbr 210 ------- 0 1.0 3.1 77 79
r 0.55293 1 2 cbr 210 ------- 0 1.0 3.1 99 103
+ 0.55293 2 3 cbr 210 ------- 0 1.0 3.1 99 103
- 0.55293 2 3 cbr 210 ------- 0 1.0 3.1 99 103
+ 0.55375 1 2 cbr 210 ------- 0 1.0 3.1 121 125
- 0.55375 1 2 cbr 210 ------- 0 1.0 3.1 121 125
r 0.55586 2 3 cbr 210 ------- 0 1.0 3.1 78 80
r 0.55668 1 2 cbr 210 ------- 0 1.0 3.1 100 104
+ 0.55668 2 3 cbr 210 ------- 0 1.0 3.1 100 104
- 0.55668 2 3 cbr 210 ------- 0 1.0 3.1 100 104
+ 0.5575 1 2 cbr 210 ------- 0 1.0 3.1 122 126
- 0.5575 1 2 cbr 210 ------- 0 1.0 3.1 122 126
r 0.55961 2 3 cbr 210 ------- 0 1.0 3.1 79 81
r 0.56043 1 2 cbr 210 ------- 0 1.0 3.1 101 105
+ 0.56043 2 3 cbr 210 ------- 0 1.0 3.1 101 105
- 0.56043 2 3 cbr 210 ------- 0 1.0 3.1 101 105
+ 0.56125 1 2 cbr 210 ------- 0 1.0 3.1 123 127
- 0.56125 1 2 cbr 210 ------- 0 1.0 3.1 123 127
r 0.56336 2 3 cbr 210 ------- 0 1.0 3.1 80 82