+ 0.1 0 1 tcp 40 ------- 0 0.0 1.0 0 0
- 0.1 0 1 tcp 40 ------- 0 0.0 1.0 0 0
+ 0.1 2 1 tcp 40 ------- 0 2.0 1.1 0 1
- 0.1 2 1 tcp 40 ------- 0 2.0 1.1 0 1
r 0.10832 0 1 tcp 40 ------- 0 0.0 1.0 0 0
+ 0.10832 1 0 ack 40 ------- 0 1.0 0.0 0 2
- 0.10832 1 0 ack 40 ------- 0 1.0 0.0 0 2
r 0.11664 1 0 ack 40 ------- 0 1.0 0.0 0 2
+ 0.11664 0 1 tcp 1040 ------- 0 0.0 1.0 1 3
- 0.11664 0 1 tcp 1040 ------- 0 0.0 1.0 1 3
+ 0.11664 0 1 tcp 1040 ------- 0 0.0 1.0 2 4
- 0.12496 0 1 tcp 1040 ------- 0 0.0 1.0 2 4
r 0.13296 0 1 tcp 1040 ------- 0 0.0 1.0 1 3
+ 0.13296 1 0 ack 40 ------- 0 1.0 0.0 1 5
- 0.13296 1 0 ack 40 ------- 0 1.0 0.0 1 5
r 0.14128 0 1 tcp 1040 ------- 0 0.0 1.0 2 4
+ 0.14128 1 0 ack 40 ------- 0 1.0 0.0 2 6
- 0.14128 1 0 ack 40 ------- 0 1.0 0.0 2 6
r 0.14128 1 0 ack 40 ------- 0 1.0 0.0 1 5
+ 0.14128 0 1 tcp 1040 ------- 0 0.0 1.0 3 7
- 0.14128 0 1 tcp 1040 ------- 0 0.0 1.0 3 7
+ 0.14128 0 1 tcp 1040 ------- 0 0.0 1.0 4 8
r 0.1496 1 0 ack 40 ------- 0 1.0 0.0 2 6
+ 0.1496 0 1 tcp 1040 ------- 0 0.0 1.0 5 9
+ 0.1496 0 1 tcp 1040 ------- 0 0.0 1.0 6 10
d 0.1496 0 1 tcp 1040 ------- 0 0.0 1.0 6 10
- 0.1496 0 1 tcp 1040 ------- 0 0.0 1.0 4 8
r 0.1576 0 1 tcp 1040 ------- 0 0.0 1.0 3 7
+ 0.1576 1 0 ack 40 ------- 0 1.0 0.0 3 11
- 0.1576 1 0 ack 40 ------- 0 1.0 0.0 3 11
- 0.15792 0 1 tcp 1040 ------- 0 0.0 1.0 5 9
r 0.16592 0 1 tcp 1040 ------- 0 0.0 1.0 4 8
+ 0.16592 1 0 ack 40 ------- 0 1.0 0.0 4 12
- 0.16592 1 0 ack 40 ------- 0 1.0 0.0 4 12
r 0.16592 1 0 ack 40 ------- 0 1.0 0.0 3 11
+ 0.16592 0 1 tcp 1040 ------- 0 0.0 1.0 7 13
+ 0.16592 0 1 tcp 1040 ------- 0 0.0 1.0 8 14
- 0.16624 0 1 tcp 1040 ------- 0 0.0 1.0 7 13
r 0.17424 0 1 tcp 1040 ------- 0 0.0 1.0 5 9
+ 0.17424 1 0 ack 40 ------- 0 1.0 0.0 5 15
- 0.17424 1 0 ack 40 ------- 0 1.0 0.0 5 15
r 0.17424 1 0 ack 40 ------- 0 1.0 0.0 4 12
+ 0.17424 0 1 tcp 1040 ------- 0 0.0 1.0 9 16
+ 0.17424 0 1 tcp 1040 ------- 0 0.0 1.0 10 17
d 0.17424 0 1 tcp 1040 ------- 0 0.0 1.0 10 17
- 0.17456 0 1 tcp 1040 ------- 0 0.0 1.0 8 14
r 0.180032 2 1 tcp 40 ------- 0 2.0 1.1 0 1
+ 0.180032 1 2 ack 40 ------- 0 1.1 2.0 0 18
- 0.180032 1 2 ack 40 ------- 0 1.1 2.0 0 18
r 0.18256 0 1 tcp 1040 ------- 0 0.0 1.0 7 13
+ 0.18256 1 0 ack 40 ------- 0 1.0 0.0 5 19
- 0.18256 1 0 ack 40 ------- 0 1.0 0.0 5 19
r 0.18256 1 0 ack 40 ------- 0 1.0 0.0 5 15
+ 0.18256 0 1 tcp 1040 ------- 0 0.0 1.0 11 20
+ 0.18256 0 1 tcp 1040 ------- 0 0.0 1.0 12 21
d 0.18256 0 1 tcp 1040 ------- 0 0.0 1.0 12 21
- 0.18288 0 1 tcp 1040 ------- 0 0.0 1.0 9 16
r 0.19088 0 1 tcp 1040 ------- 0 0.0 1.0 8 14
+ 0.19088 1 0 ack 40 ------- 0 1.0 0.0 5 22
- 0.19088 1 0 ack 40 ------- 0 1.0 0.0 5 22
r 0.19088 1 0 ack 40 ------- 0 1.0 0.0 5 19
+ 0.19088 0 1 tcp 1040 ------- 0 0.0 1.0 13 23
- 0.1912 0 1 tcp 1040 ------- 0 0.0 1.0 11 20
r 0.1992 0 1 tcp 1040 ------- 0 0.0 1.0 9 16
+ 0.1992 1 0 ack 40 ------- 0 1.0 0.0 5 24
- 0.1992 1 0 ack 40 ------- 0 1.0 0.0 5 24
r 0.1992 1 0 ack 40 ------- 0 1.0 0.0 5 22
+ 0.1992 0 1 tcp 1040 ------- 0 0.0 1.0 14 25
- 0.19952 0 1 tcp 1040 ------- 0 0.0 1.0 13 23
r 0.20752 0 1 tcp 1040 ------- 0 0.0 1.0 11 20
+ 0.20752 1 0 ack 40 ------- 0 1.0 0.0 5 26
- 0.20752 1 0 ack 40 ------- 0 1.0 0.0 5 26
r 0.20752 1 0 ack 40 ------- 0 1.0 0.0 5 24
+ 0.20752 0 1 tcp 1040 ---A--- 0 0.0 1.0 6 27
- 0.20784 0 1 tcp 1040 ------- 0 0.0 1.0 14 25
r 0.21584 0 1 tcp 1040 ------- 0 0.0 1.0 13 23
+ 0.21584 1 0 ack 40 ------- 0 1.0 0.0 5 28
- 0.21584 1 0 ack 40 ------- 0 1.0 0.0 5 28
r 0.21584 1 0 ack 40 ------- 0 1.0 0.0 5 26
- 0.21616 0 1 tcp 1040 ---A--- 0 0.0 1.0 6 27
r 0.22416 0 1 tcp 1040 ------- 0 0.0 1.0 14 25
+ 0.22416 1 0 ack 40 ------- 0 1.0 0.0 5 29
- 0.22416 1 0 ack 40 ------- 0 1.0 0.0 5 29
r 0.22416 1 0 ack 40 ------- 0 1.0 0.0 5 28
r 0.23248 0 1 tcp 1040 ---A--- 0 0.0 1.0 6 27
+ 0.23248 1 0 ack 40 ------- 0 1.0 0.0 9 30
- 0.23248 1 0 ack 40 ------- 0 1.0 0.0 9 30
r 0.23248 1 0 ack 40 ------- 0 1.0 0.0 5 29
r 0.2408 1 0 ack 40 ------- 0 1.0 0.0 9 30
+ 0.2408 0 1 tcp 1040 ------- 0 0.0 1.0 10 31
- 0.2408 0 1 tcp 1040 ------- 0 0.0 1.0 10 31
+ 0.2408 0 1 tcp 1040 ------- 0 0.0 1.0 11 32
- 0.24912 0 1 tcp 1040 ------- 0 0.0 1.0 11 32
r 0.25712 0 1 tcp 1040 ------- 0 0.0 1.0 10 31
+ 0.25712 1 0 ack 40 ------- 0 1.0 0.0 11 33
- 0.25712 1 0 ack 40 ------- 0 1.0 0.0 11 33
r 0.260064 1 2 ack 40 ------- 0 1.1 2.0 0 18
+ 0.260064 2 1 tcp 1040 ------- 0 2.0 1.1 1 34
- 0.260064 2 1 tcp 1040 ------- 0 2.0 1.1 1 34
+ 0.260064 2 1 tcp 1040 ------- 0 2.0 1.1 2 35
- 0.260896 2 1 tcp 1040 ------- 0 2.0 1.1 2 35
r 0.26544 0 1 tcp 1040 ------- 0 0.0 1.0 11 32
+ 0.26544 1 0 ack 40 ------- 0 1.0 0.0 11 36
- 0.26544 1 0 ack 40 ------- 0 1.0 0.0 11 36
r 0.26544 1 0 ack 40 ------- 0 1.0 0.0 11 33
+ 0.26544 0 1 tcp 1040 ------- 0 0.0 1.0 12 37
- 0.26544 0 1 tcp 1040 ------- 0 0.0 1.0 12 37
+ 0.26544 0 1 tcp 1040 ------- 0 0.0 1.0 13 38
+ 0.26544 0 1 tcp 1040 ------- 0 0.0 1.0 14 39
r 0.27376 1 0 ack 40 ------- 0 1.0 0.0 11 36
+ 0.27376 0 1 tcp 1040 ------- 0 0.0 1.0 15 40
d 0.27376 0 1 tcp 1040 ------- 0 0.0 1.0 15 40
- 0.27376 0 1 tcp 1040 ------- 0 0.0 1.0 13 38
r 0.28176 0 1 tcp 1040 ------- 0 0.0 1.0 12 37
+ 0.28176 1 0 ack 40 ------- 0 1.0 0.0 14 41
- 0.28176 1 0 ack 40 ------- 0 1.0 0.0 14 41
- 0.28208 0 1 tcp 1040 ------- 0 0.0 1.0 14 39
r 0.29008 0 1 tcp 1040 ------- 0 0.0 1.0 13 38
+ 0.29008 1 0 ack 40 ------- 0 1.0 0.0 14 42
- 0.29008 1 0 ack 40 ------- 0 1.0 0.0 14 42
r 0.29008 1 0 ack 40 ------- 0 1.0 0.0 14 41
+ 0.29008 0 1 tcp 1040 ------- 0 0.0 1.0 16 43
+ 0.29008 0 1 tcp 1040 ------- 0 0.0 1.0 17 44
- 0.2904 0 1 tcp 1040 ------- 0 0.0 1.0 16 43
r 0.2984 0 1 tcp 1040 ------- 0 0.0 1.0 14 39
+ 0.2984 1 0 ack 40 ------- 0 1.0 0.0 14 45
- 0.2984 1 0 ack 40 ------- 0 1.0 0.0 14 45
r 0.2984 1 0 ack 40 ------- 0 1.0 0.0 14 42
+ 0.2984 0 1 tcp 1040 ------- 0 0.0 1.0 18 46
- 0.29872 0 1 tcp 1040 ------- 0 0.0 1.0 17 44
r 0.30672 0 1 tcp 1040 ------- 0 0.0 1.0 16 43
+ 0.30672 1 0 ack 40 ------- 0 1.0 0.0 14 47
- 0.30672 1 0 ack 40 ------- 0 1.0 0.0 14 47
r 0.30672 1 0 ack 40 ------- 0 1.0 0.0 14 45
+ 0.30672 0 1 tcp 1040 ------- 0 0.0 1.0 19 48
- 0.30704 0 1 tcp 1040 ------- 0 0.0 1.0 18 46
r 0.31504 0 1 tcp 1040 ------- 0 0.0 1.0 17 44
+ 0.31504 1 0 ack 40 ------- 0 1.0 0.0 14 49
- 0.31504 1 0 ack 40 ------- 0 1.0 0.0 14 49
r 0.31504 1 0 ack 40 ------- 0 1.0 0.0 14 47
- 0.31536 0 1 tcp 1040 ------- 0 0.0 1.0 19 48
r 0.32336 0 1 tcp 1040 ------- 0 0.0 1.0 18 46
+ 0.32336 1 0 ack 40 ------- 0 1.0 0.0 14 50
- 0.32336 1 0 ack 40 ------- 0 1.0 0.0 14 50
r 0.32336 1 0 ack 40 ------- 0 1.0 0.0 14 49
r 0.33168 0 1 tcp 1040 ------- 0 0.0 1.0 19 48
+ 0.33168 1 0 ack 40 ------- 0 1.0 0.0 14 51
- 0.33168 1 0 ack 40 ------- 0 1.0 0.0 14 51
r 0.33168 1 0 ack 40 ------- 0 1.0 0.0 14 50
r 0.34 1 0 ack 40 ------- 0 1.0 0.0 14 51
r 0.340896 2 1 tcp 1040 ------- 0 2.0 1.1 1 34
+ 0.340896 1 2 ack 40 ------- 0 1.1 2.0 1 52
- 0.340896 1 2 ack 40 ------- 0 1.1 2.0 1 52
r 0.341728 2 1 tcp 1040 ------- 0 2.0 1.1 2 35
+ 0.341728 1 2 ack 40 ------- 0 1.1 2.0 2 53
- 0.341728 1 2 ack 40 ------- 0 1.1 2.0 2 53
r 0.420928 1 2 ack 40 ------- 0 1.1 2.0 1 52
+ 0.420928 2 1 tcp 1040 ------- 0 2.0 1.1 3 54
- 0.420928 2 1 tcp 1040 ------- 0 2.0 1.1 3 54
+ 0.420928 2 1 tcp 1040 ------- 0 2.0 1.1 4 55
r 0.42176 1 2 ack 40 ------- 0 1.1 2.0 2 53
+ 0.42176 2 1 tcp 1040 ------- 0 2.0 1.1 5 56
+ 0.42176 2 1 tcp 1040 ------- 0 2.0 1.1 6 57
d 0.42176 2 1 tcp 1040 ------- 0 2.0 1.1 6 57
- 0.42176 2 1 tcp 1040 ------- 0 2.0 1.1 4 55
- 0.422592 2 1 tcp 1040 ------- 0 2.0 1.1 5 56
+ 0.49008 0 1 tcp 1040 ---A--- 0 0.0 1.0 15 58
- 0.49008 0 1 tcp 1040 ---A--- 0 0.0 1.0 15 58
r 0.50176 2 1 tcp 1040 ------- 0 2.0 1.1 3 54
+ 0.50176 1 2 ack 40 ------- 0 1.1 2.0 3 59
- 0.50176 1 2 ack 40 ------- 0 1.1 2.0 3 59
r 0.502592 2 1 tcp 1040 ------- 0 2.0 1.1 4 55
+ 0.502592 1 2 ack 40 ------- 0 1.1 2.0 4 60
- 0.502592 1 2 ack 40 ------- 0 1.1 2.0 4 60
r 0.503424 2 1 tcp 1040 ------- 0 2.0 1.1 5 56
+ 0.503424 1 2 ack 40 ------- 0 1.1 2.0 5 61
- 0.503424 1 2 ack 40 ------- 0 1.1 2.0 5 61
r 0.5064 0 1 tcp 1040 ---A--- 0 0.0 1.0 15 58
+ 0.5064 1 0 ack 40 ------- 0 1.0 0.0 19 62
- 0.5064 1 0 ack 40 ------- 0 1.0 0.0 19 62
r 0.51472 1 0 ack 40 ------- 0 1.0 0.0 19 62
+ 0.51472 0 1 tcp 1040 ------- 0 0.0 1.0 20 63
- 0.51472 0 1 tcp 1040 ------- 0 0.0 1.0 20 63
+ 0.51472 0 1 tcp 1040 ------- 0 0.0 1.0 21 64
- 0.52304 0 1 tcp 1040 ------- 0 0.0 1.0 21 64
r 0.53104 0 1 tcp 1040 ------- 0 0.0 1.0 20 63
+ 0.53104 1 0 ack 40 ------- 0 1.0 0.0 20 65
- 0.53104 1 0 ack 40 ------- 0 1.0 0.0 20 65
r 0.53936 0 1 tcp 1040 ------- 0 0.0 1.0 21 64
+ 0.53936 1 0 ack 40 ------- 0 1.0 0.0 21 66
- 0.53936 1 0 ack 40 ------- 0 1.0 0.0 21 66
r 0.53936 1 0 ack 40 ------- 0 1.0 0.0 20 65
+ 0.53936 0 1 tcp 1040 ------- 0 0.0 1.0 22 67
- 0.53936 0 1 tcp 1040 ------- 0 0.0 1.0 22 67
r 0.54768 1 0 ack 40 ------- 0 1.0 0.0 21 66
+ 0.54768 0 1 tcp 1040 ------- 0 0.0 1.0 23 68
- 0.54768 0 1 tcp 1040 ------- 0 0.0 1.0 23 68
r 0.55568 0 1 tcp 1040 ------- 0 0.0 1.0 22 67
+ 0.55568 1 0 ack 40 ------- 0 1.0 0.0 22 69
- 0.55568 1 0 ack 40 ------- 0 1.0 0.0 22 69
r 0.564 0 1 tcp 1040 ------- 0 0.0 1.0 23 68
+ 0.564 1 0 ack 40 ------- 0 1.0 0.0 23 70
- 0.564 1 0 ack 40 ------- 0 1.0 0.0 23 70
r 0.564 1 0 ack 40 ------- 0 1.0 0.0 22 69
+ 0.564 0 1 tcp 1040 ------- 0 0.0 1.0 24 71
- 0.564 0 1 tcp 1040 ------- 0 0.0 1.0 24 71
+ 0.564 0 1 tcp 1040 ------- 0 0.0 1.0 25 72
r 0.57232 1 0 ack 40 ------- 0 1.0 0.0 23 70
+ 0.57232 0 1 tcp 1040 ------- 0 0.0 1.0 26 73
- 0.57232 0 1 tcp 1040 ------- 0 0.0 1.0 25 72
r 0.58032 0 1 tcp 1040 ------- 0 0.0 1.0 24 71
+ 0.58032 1 0 ack 40 ------- 0 1.0 0.0 24 74
- 0.58032 1 0 ack 40 ------- 0 1.0 0.0 24 74
- 0.58064 0 1 tcp 1040 ------- 0 0.0 1.0 26 73
r 0.581792 1 2 ack 40 ------- 0 1.1 2.0 3 59
+ 0.581792 2 1 tcp 1040 ------- 0 2.0 1.1 7 75
- 0.581792 2 1 tcp 1040 ------- 0 2.0 1.1 7 75
+ 0.581792 2 1 tcp 1040 ------- 0 2.0 1.1 8 76
r 0.582624 1 2 ack 40 ------- 0 1.1 2.0 4 60
+ 0.582624 2 1 tcp 1040 ------- 0 2.0 1.1 9 77
+ 0.582624 2 1 tcp 1040 ------- 0 2.0 1.1 10 78
d 0.582624 2 1 tcp 1040 ------- 0 2.0 1.1 10 78
- 0.582624 2 1 tcp 1040 ------- 0 2.0 1.1 8 76
r 0.583456 1 2 ack 40 ------- 0 1.1 2.0 5 61
+ 0.583456 2 1 tcp 1040 ------- 0 2.0 1.1 11 79
+ 0.583456 2 1 tcp 1040 ------- 0 2.0 1.1 12 80
d 0.583456 2 1 tcp 1040 ------- 0 2.0 1.1 12 80
- 0.583456 2 1 tcp 1040 ------- 0 2.0 1.1 9 77
- 0.584288 2 1 tcp 1040 ------- 0 2.0 1.1 11 79
r 0.58864 0 1 tcp 1040 ------- 0 0.0 1.0 25 72
+ 0.58864 1 0 ack 40 ------- 0 1.0 0.0 25 81
- 0.58864 1 0 ack 40 ------- 0 1.0 0.0 25 81
r 0.58864 1 0 ack 40 ------- 0 1.0 0.0 24 74
+ 0.58864 0 1 tcp 1040 ------- 0 0.0 1.0 27 82
- 0.58896 0 1 tcp 1040 ------- 0 0.0 1.0 27 82
r 0.59696 0 1 tcp 1040 ------- 0 0.0 1.0 26 73
+ 0.59696 1 0 ack 40 ------- 0 1.0 0.0 26 83
- 0.59696 1 0 ack 40 ------- 0 1.0 0.0 26 83
r 0.59696 1 0 ack 40 ------- 0 1.0 0.0 25 81
+ 0.59696 0 1 tcp 1040 ------- 0 0.0 1.0 28 84
+ 0.59696 0 1 tcp 1040 ------- 0 0.0 1.0 29 85
- 0.59728 0 1 tcp 1040 ------- 0 0.0 1.0 28 84
r 0.60528 0 1 tcp 1040 ------- 0 0.0 1.0 27 82
+ 0.60528 1 0 ack 40 ------- 0 1.0 0.0 27 86
- 0.60528 1 0 ack 40 ------- 0 1.0 0.0 27 86
r 0.60528 1 0 ack 40 ------- 0 1.0 0.0 26 83
+ 0.60528 0 1 tcp 1040 ------- 0 0.0 1.0 30 87
- 0.6056 0 1 tcp 1040 ------- 0 0.0 1.0 29 85
r 0.6136 0 1 tcp 1040 ------- 0 0.0 1.0 28 84
+ 0.6136 1 0 ack 40 ------- 0 1.0 0.0 28 88
- 0.6136 1 0 ack 40 ------- 0 1.0 0.0 28 88
r 0.6136 1 0 ack 40 ------- 0 1.0 0.0 27 86
+ 0.6136 0 1 tcp 1040 ------- 0 0.0 1.0 31 89
- 0.61392 0 1 tcp 1040 ------- 0 0.0 1.0 30 87
r 0.62192 0 1 tcp 1040 ------- 0 0.0 1.0 29 85
+ 0.62192 1 0 ack 40 ------- 0 1.0 0.0 29 90
- 0.62192 1 0 ack 40 ------- 0 1.0 0.0 29 90
r 0.62192 1 0 ack 40 ------- 0 1.0 0.0 28 88
+ 0.62192 0 1 tcp 1040 ------- 0 0.0 1.0 32 91
- 0.62224 0 1 tcp 1040 ------- 0 0.0 1.0 31 89
r 0.63024 0 1 tcp 1040 ------- 0 0.0 1.0 30 87
+ 0.63024 1 0 ack 40 ------- 0 1.0 0.0 30 92
- 0.63024 1 0 ack 40 ------- 0 1.0 0.0 30 92
r 0.63024 1 0 ack 40 ------- 0 1.0 0.0 29 90
+ 0.63024 0 1 tcp 1040 ------- 0 0.0 1.0 33 93
- 0.63056 0 1 tcp 1040 ------- 0 0.0 1.0 32 91
r 0.63856 0 1 tcp 1040 ------- 0 0.0 1.0 31 89
+ 0.63856 1 0 ack 40 ------- 0 1.0 0.0 31 94
- 0.63856 1 0 ack 40 ------- 0 1.0 0.0 31 94
r 0.63856 1 0 ack 40 ------- 0 1.0 0.0 30 92
+ 0.63856 0 1 tcp 1040 ------- 0 0.0 1.0 34 95
+ 0.63856 0 1 tcp 1040 ------- 0 0.0 1.0 35 96
d 0.63856 0 1 tcp 1040 ------- 0 0.0 1.0 35 96
- 0.63888 0 1 tcp 1040 ------- 0 0.0 1.0 33 93
r 0.64688 0 1 tcp 1040 ------- 0 0.0 1.0 32 91
+ 0.64688 1 0 ack 40 ------- 0 1.0 0.0 32 97
- 0.64688 1 0 ack 40 ------- 0 1.0 0.0 32 97
r 0.64688 1 0 ack 40 ------- 0 1.0 0.0 31 94
+ 0.64688 0 1 tcp 1040 ------- 0 0.0 1.0 36 98
- 0.6472 0 1 tcp 1040 ------- 0 0.0 1.0 34 95
r 0.6552 0 1 tcp 1040 ------- 0 0.0 1.0 33 93
+ 0.6552 1 0 ack 40 ------- 0 1.0 0.0 33 99
- 0.6552 1 0 ack 40 ------- 0 1.0 0.0 33 99
r 0.6552 1 0 ack 40 ------- 0 1.0 0.0 32 97
+ 0.6552 0 1 tcp 1040 ------- 0 0.0 1.0 37 100
- 0.65552 0 1 tcp 1040 ------- 0 0.0 1.0 36 98
r 0.662624 2 1 tcp 1040 ------- 0 2.0 1.1 7 75
+ 0.662624 1 2 ack 40 ------- 0 1.1 2.0 5 101
- 0.662624 1 2 ack 40 ------- 0 1.1 2.0 5 101
r 0.663456 2 1 tcp 1040 ------- 0 2.0 1.1 8 76
+ 0.663456 1 2 ack 40 ------- 0 1.1 2.0 5 102
- 0.663456 1 2 ack 40 ------- 0 1.1 2.0 5 102
r 0.66352 0 1 tcp 1040 ------- 0 0.0 1.0 34 95
+ 0.66352 1 0 ack 40 ------- 0 1.0 0.0 34 103
- 0.66352 1 0 ack 40 ------- 0 1.0 0.0 34 103
r 0.66352 1 0 ack 40 ------- 0 1.0 0.0 33 99
+ 0.66352 0 1 tcp 1040 ------- 0 0.0 1.0 38 104
- 0.66384 0 1 tcp 1040 ------- 0 0.0 1.0 37 100
r 0.664288 2 1 tcp 1040 ------- 0 2.0 1.1 9 77
+ 0.664288 1 2 ack 40 ------- 0 1.1 2.0 5 105
- 0.664288 1 2 ack 40 ------- 0 1.1 2.0 5 105
r 0.66512 2 1 tcp 1040 ------- 0 2.0 1.1 11 79
+ 0.66512 1 2 ack 40 ------- 0 1.1 2.0 5 106
- 0.66512 1 2 ack 40 ------- 0 1.1 2.0 5 106
r 0.67184 0 1 tcp 1040 ------- 0 0.0 1.0 36 98
+ 0.67184 1 0 ack 40 ------- 0 1.0 0.0 34 107
- 0.67184 1 0 ack 40 ------- 0 1.0 0.0 34 107
r 0.67184 1 0 ack 40 ------- 0 1.0 0.0 34 103
+ 0.67184 0 1 tcp 1040 ------- 0 0.0 1.0 39 108
- 0.67216 0 1 tcp 1040 ------- 0 0.0 1.0 38 104
r 0.68016 0 1 tcp 1040 ------- 0 0.0 1.0 37 100
+ 0.68016 1 0 ack 40 ------- 0 1.0 0.0 34 109
- 0.68016 1 0 ack 40 ------- 0 1.0 0.0 34 109
r 0.68016 1 0 ack 40 ------- 0 1.0 0.0 34 107
+ 0.68016 0 1 tcp 1040 ------- 0 0.0 1.0 40 110
- 0.68048 0 1 tcp 1040 ------- 0 0.0 1.0 39 108
r 0.68848 0 1 tcp 1040 ------- 0 0.0 1.0 38 104
+ 0.68848 1 0 ack 40 ------- 0 1.0 0.0 34 111
- 0.68848 1 0 ack 40 ------- 0 1.0 0.0 34 111
r 0.68848 1 0 ack 40 ------- 0 1.0 0.0 34 109
+ 0.68848 0 1 tcp 1040 ------- 0 0.0 1.0 41 112
- 0.6888 0 1 tcp 1040 ------- 0 0.0 1.0 40 110
r 0.6968 0 1 tcp 1040 ------- 0 0.0 1.0 39 108
+ 0.6968 1 0 ack 40 ------- 0 1.0 0.0 34 113
- 0.6968 1 0 ack 40 ------- 0 1.0 0.0 34 113
r 0.6968 1 0 ack 40 ------- 0 1.0 0.0 34 111
+ 0.6968 0 1 tcp 1040 ---A--- 0 0.0 1.0 35 114
- 0.69712 0 1 tcp 1040 ------- 0 0.0 1.0 41 112
r 0.70512 0 1 tcp 1040 ------- 0 0.0 1.0 40 110
+ 0.70512 1 0 ack 40 ------- 0 1.0 0.0 34 115
- 0.70512 1 0 ack 40 ------- 0 1.0 0.0 34 115
r 0.70512 1 0 ack 40 ------- 0 1.0 0.0 34 113
- 0.70544 0 1 tcp 1040 ---A--- 0 0.0 1.0 35 114
r 0.71344 0 1 tcp 1040 ------- 0 0.0 1.0 41 112
+ 0.71344 1 0 ack 40 ------- 0 1.0 0.0 34 116
- 0.71344 1 0 ack 40 ------- 0 1.0 0.0 34 116
r 0.71344 1 0 ack 40 ------- 0 1.0 0.0 34 115
r 0.72176 0 1 tcp 1040 ---A--- 0 0.0 1.0 35 114
+ 0.72176 1 0 ack 40 ------- 0 1.0 0.0 41 117
- 0.72176 1 0 ack 40 ------- 0 1.0 0.0 41 117
r 0.72176 1 0 ack 40 ------- 0 1.0 0.0 34 116
r 0.73008 1 0 ack 40 ------- 0 1.0 0.0 41 117
+ 0.73008 0 1 tcp 1040 ------- 0 0.0 1.0 42 118
- 0.73008 0 1 tcp 1040 ------- 0 0.0 1.0 42 118
+ 0.73008 0 1 tcp 1040 ------- 0 0.0 1.0 43 119
- 0.7384 0 1 tcp 1040 ------- 0 0.0 1.0 43 119
r 0.742656 1 2 ack 40 ------- 0 1.1 2.0 5 101
+ 0.742656 2 1 tcp 1040 ------- 0 2.0 1.1 13 120
- 0.742656 2 1 tcp 1040 ------- 0 2.0 1.1 13 120
r 0.743488 1 2 ack 40 ------- 0 1.1 2.0 5 102
+ 0.743488 2 1 tcp 1040 ------- 0 2.0 1.1 14 121
- 0.743488 2 1 tcp 1040 ------- 0 2.0 1.1 14 121
r 0.74432 1 2 ack 40 ------- 0 1.1 2.0 5 105
+ 0.74432 2 1 tcp 1040 ---A--- 0 2.0 1.1 6 122
- 0.74432 2 1 tcp 1040 ---A--- 0 2.0 1.1 6 122
r 0.745152 1 2 ack 40 ------- 0 1.1 2.0 5 106
r 0.7464 0 1 tcp 1040 ------- 0 0.0 1.0 42 118
+ 0.7464 1 0 ack 40 ------- 0 1.0 0.0 42 123
- 0.7464 1 0 ack 40 ------- 0 1.0 0.0 42 123
r 0.75472 0 1 tcp 1040 ------- 0 0.0 1.0 43 119
+ 0.75472 1 0 ack 40 ------- 0 1.0 0.0 43 124
- 0.75472 1 0 ack 40 ------- 0 1.0 0.0 43 124
r 0.75472 1 0 ack 40 ------- 0 1.0 0.0 42 123
+ 0.75472 0 1 tcp 1040 ------- 0 0.0 1.0 44 125
- 0.75472 0 1 tcp 1040 ------- 0 0.0 1.0 44 125
r 0.76304 1 0 ack 40 ------- 0 1.0 0.0 43 124
+ 0.76304 0 1 tcp 1040 ------- 0 0.0 1.0 45 126
- 0.76304 0 1 tcp 1040 ------- 0 0.0 1.0 45 126
r 0.77104 0 1 tcp 1040 ------- 0 0.0 1.0 44 125
+ 0.77104 1 0 ack 40 ------- 0 1.0 0.0 44 127
- 0.77104 1 0 ack 40 ------- 0 1.0 0.0 44 127
r 0.77936 0 1 tcp 1040 ------- 0 0.0 1.0 45 126
+ 0.77936 1 0 ack 40 ------- 0 1.0 0.0 45 128
- 0.77936 1 0 ack 40 ------- 0 1.0 0.0 45 128
r 0.77936 1 0 ack 40 ------- 0 1.0 0.0 44 127
+ 0.77936 0 1 tcp 1040 ------- 0 0.0 1.0 46 129
- 0.77936 0 1 tcp 1040 ------- 0 0.0 1.0 46 129
+ 0.77936 0 1 tcp 1040 ------- 0 0.0 1.0 47 130
r 0.78768 1 0 ack 40 ------- 0 1.0 0.0 45 128
+ 0.78768 0 1 tcp 1040 ------- 0 0.0 1.0 48 131
- 0.78768 0 1 tcp 1040 ------- 0 0.0 1.0 47 130
r 0.79568 0 1 tcp 1040 ------- 0 0.0 1.0 46 129
+ 0.79568 1 0 ack 40 ------- 0 1.0 0.0 46 132
- 0.79568 1 0 ack 40 ------- 0 1.0 0.0 46 132
- 0.796 0 1 tcp 1040 ------- 0 0.0 1.0 48 131
r 0.804 0 1 tcp 1040 ------- 0 0.0 1.0 47 130
+ 0.804 1 0 ack 40 ------- 0 1.0 0.0 47 133
- 0.804 1 0 ack 40 ------- 0 1.0 0.0 47 133
r 0.804 1 0 ack 40 ------- 0 1.0 0.0 46 132
+ 0.804 0 1 tcp 1040 ------- 0 0.0 1.0 49 134
- 0.80432 0 1 tcp 1040 ------- 0 0.0 1.0 49 134
r 0.81232 0 1 tcp 1040 ------- 0 0.0 1.0 48 131
+ 0.81232 1 0 ack 40 ------- 0 1.0 0.0 48 135
- 0.81232 1 0 ack 40 ------- 0 1.0 0.0 48 135
r 0.81232 1 0 ack 40 ------- 0 1.0 0.0 47 133
+ 0.81232 0 1 tcp 1040 ------- 0 0.0 1.0 50 136
+ 0.81232 0 1 tcp 1040 ------- 0 0.0 1.0 51 137
- 0.81264 0 1 tcp 1040 ------- 0 0.0 1.0 50 136
r 0.82064 0 1 tcp 1040 ------- 0 0.0 1.0 49 134
+ 0.82064 1 0 ack 40 ------- 0 1.0 0.0 49 138
- 0.82064 1 0 ack 40 ------- 0 1.0 0.0 49 138
r 0.82064 1 0 ack 40 ------- 0 1.0 0.0 48 135
+ 0.82064 0 1 tcp 1040 ------- 0 0.0 1.0 52 139
- 0.82096 0 1 tcp 1040 ------- 0 0.0 1.0 51 137
r 0.823488 2 1 tcp 1040 ------- 0 2.0 1.1 13 120
+ 0.823488 1 2 ack 40 ------- 0 1.1 2.0 5 140
- 0.823488 1 2 ack 40 ------- 0 1.1 2.0 5 140
r 0.82432 2 1 tcp 1040 ------- 0 2.0 1.1 14 121
+ 0.82432 1 2 ack 40 ------- 0 1.1 2.0 5 141
- 0.82432 1 2 ack 40 ------- 0 1.1 2.0 5 141
r 0.825152 2 1 tcp 1040 ---A--- 0 2.0 1.1 6 122
+ 0.825152 1 2 ack 40 ------- 0 1.1 2.0 9 142
- 0.825152 1 2 ack 40 ------- 0 1.1 2.0 9 142
r 0.82896 0 1 tcp 1040 ------- 0 0.0 1.0 50 136
+ 0.82896 1 0 ack 40 ------- 0 1.0 0.0 50 143
- 0.82896 1 0 ack 40 ------- 0 1.0 0.0 50 143
r 0.82896 1 0 ack 40 ------- 0 1.0 0.0 49 138
+ 0.82896 0 1 tcp 1040 ------- 0 0.0 1.0 53 144
- 0.82928 0 1 tcp 1040 ------- 0 0.0 1.0 52 139
r 0.83728 0 1 tcp 1040 ------- 0 0.0 1.0 51 137
+ 0.83728 1 0 ack 40 ------- 0 1.0 0.0 51 145
- 0.83728 1 0 ack 40 ------- 0 1.0 0.0 51 145
r 0.83728 1 0 ack 40 ------- 0 1.0 0.0 50 143
+ 0.83728 0 1 tcp 1040 ------- 0 0.0 1.0 54 146
- 0.8376 0 1 tcp 1040 ------- 0 0.0 1.0 53 144
r 0.8456 0 1 tcp 1040 ------- 0 0.0 1.0 52 139
+ 0.8456 1 0 ack 40 ------- 0 1.0 0.0 52 147
- 0.8456 1 0 ack 40 ------- 0 1.0 0.0 52 147
r 0.8456 1 0 ack 40 ------- 0 1.0 0.0 51 145
+ 0.8456 0 1 tcp 1040 ------- 0 0.0 1.0 55 148
- 0.84592 0 1 tcp 1040 ------- 0 0.0 1.0 54 146
r 0.85392 0 1 tcp 1040 ------- 0 0.0 1.0 53 144
+ 0.85392 1 0 ack 40 ------- 0 1.0 0.0 53 149
- 0.85392 1 0 ack 40 ------- 0 1.0 0.0 53 149
r 0.85392 1 0 ack 40 ------- 0 1.0 0.0 52 147
+ 0.85392 0 1 tcp 1040 ------- 0 0.0 1.0 56 150
+ 0.85392 0 1 tcp 1040 ------- 0 0.0 1.0 57 151
d 0.85392 0 1 tcp 1040 ------- 0 0.0 1.0 57 151
- 0.85424 0 1 tcp 1040 ------- 0 0.0 1.0 55 148
r 0.86224 0 1 tcp 1040 ------- 0 0.0 1.0 54 146
+ 0.86224 1 0 ack 40 ------- 0 1.0 0.0 54 152
- 0.86224 1 0 ack 40 ------- 0 1.0 0.0 54 152
r 0.86224 1 0 ack 40 ------- 0 1.0 0.0 53 149
+ 0.86224 0 1 tcp 1040 ------- 0 0.0 1.0 58 153
- 0.86256 0 1 tcp 1040 ------- 0 0.0 1.0 56 150
r 0.87056 0 1 tcp 1040 ------- 0 0.0 1.0 55 148
+ 0.87056 1 0 ack 40 ------- 0 1.0 0.0 55 154
- 0.87056 1 0 ack 40 ------- 0 1.0 0.0 55 154
r 0.87056 1 0 ack 40 ------- 0 1.0 0.0 54 152
+ 0.87056 0 1 tcp 1040 ------- 0 0.0 1.0 59 155
- 0.87088 0 1 tcp 1040 ------- 0 0.0 1.0 58 153
r 0.87888 0 1 tcp 1040 ------- 0 0.0 1.0 56 150
+ 0.87888 1 0 ack 40 ------- 0 1.0 0.0 56 156
- 0.87888 1 0 ack 40 ------- 0 1.0 0.0 56 156
r 0.87888 1 0 ack 40 ------- 0 1.0 0.0 55 154
+ 0.87888 0 1 tcp 1040 ------- 0 0.0 1.0 60 157
- 0.8792 0 1 tcp 1040 ------- 0 0.0 1.0 59 155
r 0.8872 0 1 tcp 1040 ------- 0 0.0 1.0 58 153
+ 0.8872 1 0 ack 40 ------- 0 1.0 0.0 56 158
- 0.8872 1 0 ack 40 ------- 0 1.0 0.0 56 158
r 0.8872 1 0 ack 40 ------- 0 1.0 0.0 56 156
+ 0.8872 0 1 tcp 1040 ------- 0 0.0 1.0 61 159
- 0.88752 0 1 tcp 1040 ------- 0 0.0 1.0 60 157
r 0.89552 0 1 tcp 1040 ------- 0 0.0 1.0 59 155
+ 0.89552 1 0 ack 40 ------- 0 1.0 0.0 56 160
- 0.89552 1 0 ack 40 ------- 0 1.0 0.0 56 160
r 0.89552 1 0 ack 40 ------- 0 1.0 0.0 56 158
+ 0.89552 0 1 tcp 1040 ------- 0 0.0 1.0 62 161
- 0.89584 0 1 tcp 1040 ------- 0 0.0 1.0 61 159
r 0.90352 1 2 ack 40 ------- 0 1.1 2.0 5 140
r 0.90384 0 1 tcp 1040 ------- 0 0.0 1.0 60 157
+ 0.90384 1 0 ack 40 ------- 0 1.0 0.0 56 162
- 0.90384 1 0 ack 40 ------- 0 1.0 0.0 56 162
r 0.90384 1 0 ack 40 ------- 0 1.0 0.0 56 160
+ 0.90384 0 1 tcp 1040 ------- 0 0.0 1.0 63 163
- 0.90416 0 1 tcp 1040 ------- 0 0.0 1.0 62 161
r 0.904352 1 2 ack 40 ------- 0 1.1 2.0 5 141
r 0.905184 1 2 ack 40 ------- 0 1.1 2.0 9 142
+ 0.905184 2 1 tcp 1040 ------- 0 2.0 1.1 10 164
- 0.905184 2 1 tcp 1040 ------- 0 2.0 1.1 10 164
+ 0.905184 2 1 tcp 1040 ------- 0 2.0 1.1 11 165
- 0.906016 2 1 tcp 1040 ------- 0 2.0 1.1 11 165
r 0.91216 0 1 tcp 1040 ------- 0 0.0 1.0 61 159
+ 0.91216 1 0 ack 40 ------- 0 1.0 0.0 56 166
- 0.91216 1 0 ack 40 ------- 0 1.0 0.0 56 166
r 0.91216 1 0 ack 40 ------- 0 1.0 0.0 56 162
+ 0.91216 0 1 tcp 1040 ---A--- 0 0.0 1.0 57 167
- 0.91248 0 1 tcp 1040 ------- 0 0.0 1.0 63 163
r 0.92048 0 1 tcp 1040 ------- 0 0.0 1.0 62 161
+ 0.92048 1 0 ack 40 ------- 0 1.0 0.0 56 168
- 0.92048 1 0 ack 40 ------- 0 1.0 0.0 56 168
r 0.92048 1 0 ack 40 ------- 0 1.0 0.0 56 166
- 0.9208 0 1 tcp 1040 ---A--- 0 0.0 1.0 57 167
r 0.9288 0 1 tcp 1040 ------- 0 0.0 1.0 63 163
+ 0.9288 1 0 ack 40 ------- 0 1.0 0.0 56 169
- 0.9288 1 0 ack 40 ------- 0 1.0 0.0 56 169
r 0.9288 1 0 ack 40 ------- 0 1.0 0.0 56 168
r 0.93712 0 1 tcp 1040 ---A--- 0 0.0 1.0 57 167
+ 0.93712 1 0 ack 40 ------- 0 1.0 0.0 63 170
- 0.93712 1 0 ack 40 ------- 0 1.0 0.0 63 170
r 0.93712 1 0 ack 40 ------- 0 1.0 0.0 56 169
r 0.94544 1 0 ack 40 ------- 0 1.0 0.0 63 170
+ 0.94544 0 1 tcp 1040 ------- 0 0.0 1.0 64 171
- 0.94544 0 1 tcp 1040 ------- 0 0.0 1.0 64 171
+ 0.94544 0 1 tcp 1040 ------- 0 0.0 1.0 65 172
- 0.95376 0 1 tcp 1040 ------- 0 0.0 1.0 65 172
r 0.96176 0 1 tcp 1040 ------- 0 0.0 1.0 64 171
+ 0.96176 1 0 ack 40 ------- 0 1.0 0.0 64 173
- 0.96176 1 0 ack 40 ------- 0 1.0 0.0 64 173
r 0.97008 0 1 tcp 1040 ------- 0 0.0 1.0 65 172
+ 0.97008 1 0 ack 40 ------- 0 1.0 0.0 65 174
- 0.97008 1 0 ack 40 ------- 0 1.0 0.0 65 174
r 0.97008 1 0 ack 40 ------- 0 1.0 0.0 64 173
+ 0.97008 0 1 tcp 1040 ------- 0 0.0 1.0 66 175
- 0.97008 0 1 tcp 1040 ------- 0 0.0 1.0 66 175
r 0.9784 1 0 ack 40 ------- 0 1.0 0.0 65 174
+ 0.9784 0 1 tcp 1040 ------- 0 0.0 1.0 67 176
- 0.9784 0 1 tcp 1040 ------- 0 0.0 1.0 67 176
r 0.986016 2 1 tcp 1040 ------- 0 2.0 1.1 10 164
+ 0.986016 1 2 ack 40 ------- 0 1.1 2.0 11 177
- 0.986016 1 2 ack 40 ------- 0 1.1 2.0 11 177
r 0.9864 0 1 tcp 1040 ------- 0 0.0 1.0 66 175
+ 0.9864 1 0 ack 40 ------- 0 1.0 0.0 66 178
- 0.9864 1 0 ack 40 ------- 0 1.0 0.0 66 178
r 0.986848 2 1 tcp 1040 ------- 0 2.0 1.1 11 165
+ 0.986848 1 2 ack 40 ------- 0 1.1 2.0 11 179
- 0.986848 1 2 ack 40 ------- 0 1.1 2.0 11 179
r 0.99472 0 1 tcp 1040 ------- 0 0.0 1.0 67 176
+ 0.99472 1 0 ack 40 ------- 0 1.0 0.0 67 180
- 0.99472 1 0 ack 40 ------- 0 1.0 0.0 67 180
r 0.99472 1 0 ack 40 ------- 0 1.0 0.0 66 178
+ 0.99472 0 1 tcp 1040 ------- 0 0.0 1.0 68 181
- 0.99472 0 1 tcp 1040 ------- 0 0.0 1.0 68 181
+ 0.99472 0 1 tcp 1040 ------- 0 0.0 1.0 69 182
r 1.00304 1 0 ack 40 ------- 0 1.0 0.0 67 180
+ 1.00304 0 1 tcp 1040 ------- 0 0.0 1.0 70 183
- 1.00304 0 1 tcp 1040 ------- 0 0.0 1.0 69 182
r 1.01104 0 1 tcp 1040 ------- 0 0.0 1.0 68 181
+ 1.01104 1 0 ack 40 ------- 0 1.0 0.0 68 184
- 1.01104 1 0 ack 40 ------- 0 1.0 0.0 68 184
- 1.01136 0 1 tcp 1040 ------- 0 0.0 1.0 70 183
r 1.01936 0 1 tcp 1040 ------- 0 0.0 1.0 69 182
+ 1.01936 1 0 ack 40 ------- 0 1.0 0.0 69 185
- 1.01936 1 0 ack 40 ------- 0 1.0 0.0 69 185
r 1.01936 1 0 ack 40 ------- 0 1.0 0.0 68 184
+ 1.01936 0 1 tcp 1040 ------- 0 0.0 1.0 71 186
- 1.01968 0 1 tcp 1040 ------- 0 0.0 1.0 71 186
r 1.02768 0 1 tcp 1040 ------- 0 0.0 1.0 70 183
+ 1.02768 1 0 ack 40 ------- 0 1.0 0.0 70 187
- 1.02768 1 0 ack 40 ------- 0 1.0 0.0 70 187
r 1.02768 1 0 ack 40 ------- 0 1.0 0.0 69 185
+ 1.02768 0 1 tcp 1040 ------- 0 0.0 1.0 72 188
+ 1.02768 0 1 tcp 1040 ------- 0 0.0 1.0 73 189
- 1.028 0 1 tcp 1040 ------- 0 0.0 1.0 72 188
r 1.036 1 0 ack 40 ------- 0 1.0 0.0 70 187
+ 1.036 0 1 tcp 1040 ------- 0 0.0 1.0 74 190
r 1.036 0 1 tcp 1040 ------- 0 0.0 1.0 71 186
+ 1.036 1 0 ack 40 ------- 0 1.0 0.0 71 191
- 1.036 1 0 ack 40 ------- 0 1.0 0.0 71 191
- 1.03632 0 1 tcp 1040 ------- 0 0.0 1.0 73 189
r 1.04432 0 1 tcp 1040 ------- 0 0.0 1.0 72 188
+ 1.04432 1 0 ack 40 ------- 0 1.0 0.0 72 192
- 1.04432 1 0 ack 40 ------- 0 1.0 0.0 72 192
r 1.04432 1 0 ack 40 ------- 0 1.0 0.0 71 191
+ 1.04432 0 1 tcp 1040 ------- 0 0.0 1.0 75 193
- 1.04464 0 1 tcp 1040 ------- 0 0.0 1.0 74 190
r 1.05264 1 0 ack 40 ------- 0 1.0 0.0 72 192
+ 1.05264 0 1 tcp 1040 ------- 0 0.0 1.0 76 194
r 1.05264 0 1 tcp 1040 ------- 0 0.0 1.0 73 189
+ 1.05264 1 0 ack 40 ------- 0 1.0 0.0 73 195
- 1.05264 1 0 ack 40 ------- 0 1.0 0.0 73 195
- 1.05296 0 1 tcp 1040 ------- 0 0.0 1.0 75 193
r 1.06096 0 1 tcp 1040 ------- 0 0.0 1.0 74 190
+ 1.06096 1 0 ack 40 ------- 0 1.0 0.0 74 196
- 1.06096 1 0 ack 40 ------- 0 1.0 0.0 74 196
r 1.06096 1 0 ack 40 ------- 0 1.0 0.0 73 195
+ 1.06096 0 1 tcp 1040 ------- 0 0.0 1.0 77 197
- 1.06128 0 1 tcp 1040 ------- 0 0.0 1.0 76 194
r 1.066048 1 2 ack 40 ------- 0 1.1 2.0 11 177
+ 1.066048 2 1 tcp 1040 ------- 0 2.0 1.1 12 198
- 1.066048 2 1 tcp 1040 ------- 0 2.0 1.1 12 198
+ 1.066048 2 1 tcp 1040 ------- 0 2.0 1.1 13 199
+ 1.066048 2 1 tcp 1040 ------- 0 2.0 1.1 14 200
- 1.06688 2 1 tcp 1040 ------- 0 2.0 1.1 13 199
r 1.06688 1 2 ack 40 ------- 0 1.1 2.0 11 179
+ 1.06688 2 1 tcp 1040 ------- 0 2.0 1.1 15 201
- 1.067712 2 1 tcp 1040 ------- 0 2.0 1.1 14 200
- 1.068544 2 1 tcp 1040 ------- 0 2.0 1.1 15 201
r 1.06928 1 0 ack 40 ------- 0 1.0 0.0 74 196
+ 1.06928 0 1 tcp 1040 ------- 0 0.0 1.0 78 202
+ 1.06928 0 1 tcp 1040 ------- 0 0.0 1.0 79 203
d 1.06928 0 1 tcp 1040 ------- 0 0.0 1.0 79 203
r 1.06928 0 1 tcp 1040 ------- 0 0.0 1.0 75 193
+ 1.06928 1 0 ack 40 ------- 0 1.0 0.0 75 204
- 1.06928 1 0 ack 40 ------- 0 1.0 0.0 75 204
- 1.0696 0 1 tcp 1040 ------- 0 0.0 1.0 77 197
r 1.0776 0 1 tcp 1040 ------- 0 0.0 1.0 76 194
+ 1.0776 1 0 ack 40 ------- 0 1.0 0.0 76 205
- 1.0776 1 0 ack 40 ------- 0 1.0 0.0 76 205
r 1.0776 1 0 ack 40 ------- 0 1.0 0.0 75 204
+ 1.0776 0 1 tcp 1040 ------- 0 0.0 1.0 80 206
- 1.07792 0 1 tcp 1040 ------- 0 0.0 1.0 78 202
r 1.08592 1 0 ack 40 ------- 0 1.0 0.0 76 205
+ 1.08592 0 1 tcp 1040 ------- 0 0.0 1.0 81 207
r 1.08592 0 1 tcp 1040 ------- 0 0.0 1.0 77 197
+ 1.08592 1 0 ack 40 ------- 0 1.0 0.0 77 208
- 1.08592 1 0 ack 40 ------- 0 1.0 0.0 77 208
- 1.08624 0 1 tcp 1040 ------- 0 0.0 1.0 80 206
r 1.09424 0 1 tcp 1040 ------- 0 0.0 1.0 78 202
+ 1.09424 1 0 ack 40 ------- 0 1.0 0.0 78 209
- 1.09424 1 0 ack 40 ------- 0 1.0 0.0 78 209
r 1.09424 1 0 ack 40 ------- 0 1.0 0.0 77 208
+ 1.09424 0 1 tcp 1040 ------- 0 0.0 1.0 82 210
- 1.09456 0 1 tcp 1040 ------- 0 0.0 1.0 81 207
r 1.10256 1 0 ack 40 ------- 0 1.0 0.0 78 209
+ 1.10256 0 1 tcp 1040 ------- 0 0.0 1.0 83 211
r 1.10256 0 1 tcp 1040 ------- 0 0.0 1.0 80 206
+ 1.10256 1 0 ack 40 ------- 0 1.0 0.0 78 212
- 1.10256 1 0 ack 40 ------- 0 1.0 0.0 78 212
- 1.10288 0 1 tcp 1040 ------- 0 0.0 1.0 82 210
r 1.11088 0 1 tcp 1040 ------- 0 0.0 1.0 81 207
+ 1.11088 1 0 ack 40 ------- 0 1.0 0.0 78 213
- 1.11088 1 0 ack 40 ------- 0 1.0 0.0 78 213
r 1.11088 1 0 ack 40 ------- 0 1.0 0.0 78 212
+ 1.11088 0 1 tcp 1040 ------- 0 0.0 1.0 84 214
- 1.1112 0 1 tcp 1040 ------- 0 0.0 1.0 83 211
r 1.1192 1 0 ack 40 ------- 0 1.0 0.0 78 213
+ 1.1192 0 1 tcp 1040 ------- 0 0.0 1.0 85 215
r 1.1192 0 1 tcp 1040 ------- 0 0.0 1.0 82 210
+ 1.1192 1 0 ack 40 ------- 0 1.0 0.0 78 216
- 1.1192 1 0 ack 40 ------- 0 1.0 0.0 78 216
- 1.11952 0 1 tcp 1040 ------- 0 0.0 1.0 84 214
r 1.12752 0 1 tcp 1040 ------- 0 0.0 1.0 83 211
+ 1.12752 1 0 ack 40 ------- 0 1.0 0.0 78 217
- 1.12752 1 0 ack 40 ------- 0 1.0 0.0 78 217
r 1.12752 1 0 ack 40 ------- 0 1.0 0.0 78 216
+ 1.12752 0 1 tcp 1040 ---A--- 0 0.0 1.0 79 218
- 1.12784 0 1 tcp 1040 ------- 0 0.0 1.0 85 215
r 1.13584 1 0 ack 40 ------- 0 1.0 0.0 78 217
r 1.13584 0 1 tcp 1040 ------- 0 0.0 1.0 84 214
+ 1.13584 1 0 ack 40 ------- 0 1.0 0.0 78 219
- 1.13584 1 0 ack 40 ------- 0 1.0 0.0 78 219
- 1.13616 0 1 tcp 1040 ---A--- 0 0.0 1.0 79 218
r 1.14416 0 1 tcp 1040 ------- 0 0.0 1.0 85 215
+ 1.14416 1 0 ack 40 ------- 0 1.0 0.0 78 220
- 1.14416 1 0 ack 40 ------- 0 1.0 0.0 78 220
r 1.14416 1 0 ack 40 ------- 0 1.0 0.0 78 219
r 1.14688 2 1 tcp 1040 ------- 0 2.0 1.1 12 198
+ 1.14688 1 2 ack 40 ------- 0 1.1 2.0 14 221