V -t * -v 1.0a5 -a 0
A -t * -n 1 -p 0 -o 0x7fffffff -c 30 -a 1
A -t * -h 1 -m 1073741823 -s 0
c -t * -i 1 -n Red
c -t * -i 2 -n Green
n -t * -a 4 -s 4 -S UP -v circle -c black -i black
n -t * -a 0 -s 0 -S UP -v circle -c black -i black
n -t * -a 5 -s 5 -S UP -v circle -c black -i black
n -t * -a 1 -s 1 -S UP -v circle -c black -i black
n -t * -a 2 -s 2 -S UP -v circle -c black -i black
n -t * -a 3 -s 3 -S UP -v circle -c black -i black
l -t * -s 0 -d 1 -S UP -r 1000000 -D 0.01 -c black
l -t * -s 1 -d 2 -S UP -r 1000000 -D 0.01 -c black
l -t * -s 2 -d 3 -S UP -r 1000000 -D 0.01 -c black
l -t * -s 3 -d 4 -S UP -r 1000000 -D 0.01 -c black
l -t * -s 4 -d 5 -S UP -r 1000000 -D 0.01 -c black
l -t * -s 2 -d 4 -S UP -r 1000000 -D 0.01 -c black
l -t * -s 1 -d 5 -S UP -r 1000000 -D 0.01 -c black
l -t * -s 1 -d 4 -S UP -r 1000000 -D 0.01 -c black
l -t * -s 0 -d 5 -S UP -r 1000000 -D 0.01 -c black
+ -t 0.000169788487334637 -s 0 -d 1 -p rtProtoDV -e 6 -c 0 -i 0 -a 0 -x {0.2 1.2 -1 ------- null}
- -t 0.000169788487334637 -s 0 -d 1 -p rtProtoDV -e 6 -c 0 -i 0 -a 0 -x {0.2 1.2 -1 ------- null}
h -t 0.000169788487334637 -s 0 -d 1 -p rtProtoDV -e 6 -c 0 -i 0 -a 0 -x {0.2 1.2 -1 ------- null}
+ -t 0.000169788487334637 -s 0 -d 5 -p rtProtoDV -e 6 -c 0 -i 1 -a 0 -x {0.2 5.1 -1 ------- null}
- -t 0.000169788487334637 -s 0 -d 5 -p rtProtoDV -e 6 -c 0 -i 1 -a 0 -x {0.2 5.1 -1 ------- null}
h -t 0.000169788487334637 -s 0 -d 5 -p rtProtoDV -e 6 -c 0 -i 1 -a 0 -x {0.2 5.1 -1 ------- null}
+ -t 0.00710233021858257 -s 2 -d 1 -p rtProtoDV -e 6 -c 0 -i 2 -a 0 -x {2.1 1.2 -1 ------- null}
- -t 0.00710233021858257 -s 2 -d 1 -p rtProtoDV -e 6 -c 0 -i 2 -a 0 -x {2.1 1.2 -1 ------- null}
h -t 0.00710233021858257 -s 2 -d 1 -p rtProtoDV -e 6 -c 0 -i 2 -a 0 -x {2.1 1.2 -1 ------- null}
+ -t 0.00710233021858257 -s 2 -d 3 -p rtProtoDV -e 6 -c 0 -i 3 -a 0 -x {2.1 3.3 -1 ------- null}
- -t 0.00710233021858257 -s 2 -d 3 -p rtProtoDV -e 6 -c 0 -i 3 -a 0 -x {2.1 3.3 -1 ------- null}
h -t 0.00710233021858257 -s 2 -d 3 -p rtProtoDV -e 6 -c 0 -i 3 -a 0 -x {2.1 3.3 -1 ------- null}
+ -t 0.00710233021858257 -s 2 -d 4 -p rtProtoDV -e 6 -c 0 -i 4 -a 0 -x {2.1 4.1 -1 ------- null}
- -t 0.00710233021858257 -s 2 -d 4 -p rtProtoDV -e 6 -c 0 -i 4 -a 0 -x {2.1 4.1 -1 ------- null}
h -t 0.00710233021858257 -s 2 -d 4 -p rtProtoDV -e 6 -c 0 -i 4 -a 0 -x {2.1 4.1 -1 ------- null}
r -t 0.0102177884873346 -s 0 -d 1 -p rtProtoDV -e 6 -c 0 -i 0 -a 0 -x {0.2 1.2 -1 ------- null}
r -t 0.0102177884873346 -s 0 -d 5 -p rtProtoDV -e 6 -c 0 -i 1 -a 0 -x {0.2 5.1 -1 ------- null}
r -t 0.0171503302185826 -s 2 -d 1 -p rtProtoDV -e 6 -c 0 -i 2 -a 0 -x {2.1 1.2 -1 ------- null}
+ -t 0.0171503302185826 -s 1 -d 0 -p rtProtoDV -e 6 -c 0 -i 5 -a 0 -x {1.2 0.2 -1 ------- null}
- -t 0.0171503302185826 -s 1 -d 0 -p rtProtoDV -e 6 -c 0 -i 5 -a 0 -x {1.2 0.2 -1 ------- null}
h -t 0.0171503302185826 -s 1 -d 0 -p rtProtoDV -e 6 -c 0 -i 5 -a 0 -x {1.2 0.2 -1 ------- null}
+ -t 0.0171503302185826 -s 1 -d 2 -p rtProtoDV -e 6 -c 0 -i 6 -a 0 -x {1.2 2.1 -1 ------- null}
- -t 0.0171503302185826 -s 1 -d 2 -p rtProtoDV -e 6 -c 0 -i 6 -a 0 -x {1.2 2.1 -1 ------- null}
h -t 0.0171503302185826 -s 1 -d 2 -p rtProtoDV -e 6 -c 0 -i 6 -a 0 -x {1.2 2.1 -1 ------- null}
+ -t 0.0171503302185826 -s 1 -d 4 -p rtProtoDV -e 6 -c 0 -i 7 -a 0 -x {1.2 4.1 -1 ------- null}
- -t 0.0171503302185826 -s 1 -d 4 -p rtProtoDV -e 6 -c 0 -i 7 -a 0 -x {1.2 4.1 -1 ------- null}
h -t 0.0171503302185826 -s 1 -d 4 -p rtProtoDV -e 6 -c 0 -i 7 -a 0 -x {1.2 4.1 -1 ------- null}
+ -t 0.0171503302185826 -s 1 -d 5 -p rtProtoDV -e 6 -c 0 -i 8 -a 0 -x {1.2 5.1 -1 ------- null}
- -t 0.0171503302185826 -s 1 -d 5 -p rtProtoDV -e 6 -c 0 -i 8 -a 0 -x {1.2 5.1 -1 ------- null}
h -t 0.0171503302185826 -s 1 -d 5 -p rtProtoDV -e 6 -c 0 -i 8 -a 0 -x {1.2 5.1 -1 ------- null}
r -t 0.0171503302185826 -s 2 -d 3 -p rtProtoDV -e 6 -c 0 -i 3 -a 0 -x {2.1 3.3 -1 ------- null}
+ -t 0.0171503302185826 -s 3 -d 2 -p rtProtoDV -e 6 -c 0 -i 9 -a 0 -x {3.3 2.1 -1 ------- null}
- -t 0.0171503302185826 -s 3 -d 2 -p rtProtoDV -e 6 -c 0 -i 9 -a 0 -x {3.3 2.1 -1 ------- null}
h -t 0.0171503302185826 -s 3 -d 2 -p rtProtoDV -e 6 -c 0 -i 9 -a 0 -x {3.3 2.1 -1 ------- null}
+ -t 0.0171503302185826 -s 3 -d 4 -p rtProtoDV -e 6 -c 0 -i 10 -a 0 -x {3.3 4.1 -1 ------- null}
- -t 0.0171503302185826 -s 3 -d 4 -p rtProtoDV -e 6 -c 0 -i 10 -a 0 -x {3.3 4.1 -1 ------- null}
h -t 0.0171503302185826 -s 3 -d 4 -p rtProtoDV -e 6 -c 0 -i 10 -a 0 -x {3.3 4.1 -1 ------- null}
r -t 0.0171503302185826 -s 2 -d 4 -p rtProtoDV -e 6 -c 0 -i 4 -a 0 -x {2.1 4.1 -1 ------- null}
r -t 0.0271983302185826 -s 1 -d 0 -p rtProtoDV -e 6 -c 0 -i 5 -a 0 -x {1.2 0.2 -1 ------- null}
+ -t 0.0271983302185826 -s 0 -d 1 -p rtProtoDV -e 6 -c 0 -i 11 -a 0 -x {0.2 1.2 -1 ------- null}
- -t 0.0271983302185826 -s 0 -d 1 -p rtProtoDV -e 6 -c 0 -i 11 -a 0 -x {0.2 1.2 -1 ------- null}
h -t 0.0271983302185826 -s 0 -d 1 -p rtProtoDV -e 6 -c 0 -i 11 -a 0 -x {0.2 1.2 -1 ------- null}
+ -t 0.0271983302185826 -s 0 -d 5 -p rtProtoDV -e 6 -c 0 -i 12 -a 0 -x {0.2 5.1 -1 ------- null}
- -t 0.0271983302185826 -s 0 -d 5 -p rtProtoDV -e 6 -c 0 -i 12 -a 0 -x {0.2 5.1 -1 ------- null}
h -t 0.0271983302185826 -s 0 -d 5 -p rtProtoDV -e 6 -c 0 -i 12 -a 0 -x {0.2 5.1 -1 ------- null}
r -t 0.0271983302185826 -s 1 -d 2 -p rtProtoDV -e 6 -c 0 -i 6 -a 0 -x {1.2 2.1 -1 ------- null}
+ -t 0.0271983302185826 -s 2 -d 1 -p rtProtoDV -e 6 -c 0 -i 13 -a 0 -x {2.1 1.2 -1 ------- null}
- -t 0.0271983302185826 -s 2 -d 1 -p rtProtoDV -e 6 -c 0 -i 13 -a 0 -x {2.1 1.2 -1 ------- null}
h -t 0.0271983302185826 -s 2 -d 1 -p rtProtoDV -e 6 -c 0 -i 13 -a 0 -x {2.1 1.2 -1 ------- null}
+ -t 0.0271983302185826 -s 2 -d 3 -p rtProtoDV -e 6 -c 0 -i 14 -a 0 -x {2.1 3.3 -1 ------- null}
- -t 0.0271983302185826 -s 2 -d 3 -p rtProtoDV -e 6 -c 0 -i 14 -a 0 -x {2.1 3.3 -1 ------- null}
h -t 0.0271983302185826 -s 2 -d 3 -p rtProtoDV -e 6 -c 0 -i 14 -a 0 -x {2.1 3.3 -1 ------- null}
+ -t 0.0271983302185826 -s 2 -d 4 -p rtProtoDV -e 6 -c 0 -i 15 -a 0 -x {2.1 4.1 -1 ------- null}
- -t 0.0271983302185826 -s 2 -d 4 -p rtProtoDV -e 6 -c 0 -i 15 -a 0 -x {2.1 4.1 -1 ------- null}
h -t 0.0271983302185826 -s 2 -d 4 -p rtProtoDV -e 6 -c 0 -i 15 -a 0 -x {2.1 4.1 -1 ------- null}
r -t 0.0271983302185826 -s 1 -d 4 -p rtProtoDV -e 6 -c 0 -i 7 -a 0 -x {1.2 4.1 -1 ------- null}
+ -t 0.0271983302185826 -s 4 -d 1 -p rtProtoDV -e 6 -c 0 -i 16 -a 0 -x {4.1 1.2 -1 ------- null}
- -t 0.0271983302185826 -s 4 -d 1 -p rtProtoDV -e 6 -c 0 -i 16 -a 0 -x {4.1 1.2 -1 ------- null}
h -t 0.0271983302185826 -s 4 -d 1 -p rtProtoDV -e 6 -c 0 -i 16 -a 0 -x {4.1 1.2 -1 ------- null}
+ -t 0.0271983302185826 -s 4 -d 2 -p rtProtoDV -e 6 -c 0 -i 17 -a 0 -x {4.1 2.1 -1 ------- null}
- -t 0.0271983302185826 -s 4 -d 2 -p rtProtoDV -e 6 -c 0 -i 17 -a 0 -x {4.1 2.1 -1 ------- null}
h -t 0.0271983302185826 -s 4 -d 2 -p rtProtoDV -e 6 -c 0 -i 17 -a 0 -x {4.1 2.1 -1 ------- null}
+ -t 0.0271983302185826 -s 4 -d 3 -p rtProtoDV -e 6 -c 0 -i 18 -a 0 -x {4.1 3.3 -1 ------- null}
- -t 0.0271983302185826 -s 4 -d 3 -p rtProtoDV -e 6 -c 0 -i 18 -a 0 -x {4.1 3.3 -1 ------- null}
h -t 0.0271983302185826 -s 4 -d 3 -p rtProtoDV -e 6 -c 0 -i 18 -a 0 -x {4.1 3.3 -1 ------- null}
+ -t 0.0271983302185826 -s 4 -d 5 -p rtProtoDV -e 6 -c 0 -i 19 -a 0 -x {4.1 5.1 -1 ------- null}
- -t 0.0271983302185826 -s 4 -d 5 -p rtProtoDV -e 6 -c 0 -i 19 -a 0 -x {4.1 5.1 -1 ------- null}
h -t 0.0271983302185826 -s 4 -d 5 -p rtProtoDV -e 6 -c 0 -i 19 -a 0 -x {4.1 5.1 -1 ------- null}
r -t 0.0271983302185826 -s 1 -d 5 -p rtProtoDV -e 6 -c 0 -i 8 -a 0 -x {1.2 5.1 -1 ------- null}
+ -t 0.0271983302185826 -s 5 -d 0 -p rtProtoDV -e 6 -c 0 -i 20 -a 0 -x {5.1 0.2 -1 ------- null}
- -t 0.0271983302185826 -s 5 -d 0 -p rtProtoDV -e 6 -c 0 -i 20 -a 0 -x {5.1 0.2 -1 ------- null}
h -t 0.0271983302185826 -s 5 -d 0 -p rtProtoDV -e 6 -c 0 -i 20 -a 0 -x {5.1 0.2 -1 ------- null}
+ -t 0.0271983302185826 -s 5 -d 1 -p rtProtoDV -e 6 -c 0 -i 21 -a 0 -x {5.1 1.2 -1 ------- null}
- -t 0.0271983302185826 -s 5 -d 1 -p rtProtoDV -e 6 -c 0 -i 21 -a 0 -x {5.1 1.2 -1 ------- null}
h -t 0.0271983302185826 -s 5 -d 1 -p rtProtoDV -e 6 -c 0 -i 21 -a 0 -x {5.1 1.2 -1 ------- null}
+ -t 0.0271983302185826 -s 5 -d 4 -p rtProtoDV -e 6 -c 0 -i 22 -a 0 -x {5.1 4.1 -1 ------- null}
- -t 0.0271983302185826 -s 5 -d 4 -p rtProtoDV -e 6 -c 0 -i 22 -a 0 -x {5.1 4.1 -1 ------- null}
h -t 0.0271983302185826 -s 5 -d 4 -p rtProtoDV -e 6 -c 0 -i 22 -a 0 -x {5.1 4.1 -1 ------- null}
r -t 0.0271983302185826 -s 3 -d 2 -p rtProtoDV -e 6 -c 0 -i 9 -a 0 -x {3.3 2.1 -1 ------- null}
r -t 0.0271983302185826 -s 3 -d 4 -p rtProtoDV -e 6 -c 0 -i 10 -a 0 -x {3.3 4.1 -1 ------- null}
r -t 0.0372463302185826 -s 0 -d 1 -p rtProtoDV -e 6 -c 0 -i 11 -a 0 -x {0.2 1.2 -1 ------- null}
r -t 0.0372463302185826 -s 0 -d 5 -p rtProtoDV -e 6 -c 0 -i 12 -a 0 -x {0.2 5.1 -1 ------- null}
r -t 0.0372463302185826 -s 2 -d 1 -p rtProtoDV -e 6 -c 0 -i 13 -a 0 -x {2.1 1.2 -1 ------- null}
r -t 0.0372463302185826 -s 2 -d 3 -p rtProtoDV -e 6 -c 0 -i 14 -a 0 -x {2.1 3.3 -1 ------- null}
+ -t 0.0372463302185826 -s 3 -d 2 -p rtProtoDV -e 6 -c 0 -i 23 -a 0 -x {3.3 2.1 -1 ------- null}
- -t 0.0372463302185826 -s 3 -d 2 -p rtProtoDV -e 6 -c 0 -i 23 -a 0 -x {3.3 2.1 -1 ------- null}
h -t 0.0372463302185826 -s 3 -d 2 -p rtProtoDV -e 6 -c 0 -i 23 -a 0 -x {3.3 2.1 -1 ------- null}
+ -t 0.0372463302185826 -s 3 -d 4 -p rtProtoDV -e 6 -c 0 -i 24 -a 0 -x {3.3 4.1 -1 ------- null}
- -t 0.0372463302185826 -s 3 -d 4 -p rtProtoDV -e 6 -c 0 -i 24 -a 0 -x {3.3 4.1 -1 ------- null}
h -t 0.0372463302185826 -s 3 -d 4 -p rtProtoDV -e 6 -c 0 -i 24 -a 0 -x {3.3 4.1 -1 ------- null}
r -t 0.0372463302185826 -s 2 -d 4 -p rtProtoDV -e 6 -c 0 -i 15 -a 0 -x {2.1 4.1 -1 ------- null}
r -t 0.0372463302185826 -s 4 -d 1 -p rtProtoDV -e 6 -c 0 -i 16 -a 0 -x {4.1 1.2 -1 ------- null}
r -t 0.0372463302185826 -s 4 -d 2 -p rtProtoDV -e 6 -c 0 -i 17 -a 0 -x {4.1 2.1 -1 ------- null}
r -t 0.0372463302185826 -s 4 -d 3 -p rtProtoDV -e 6 -c 0 -i 18 -a 0 -x {4.1 3.3 -1 ------- null}
+ -t 0.0372463302185826 -s 3 -d 2 -p rtProtoDV -e 6 -c 0 -i 25 -a 0 -x {3.3 2.1 -1 ------- null}
+ -t 0.0372463302185826 -s 3 -d 4 -p rtProtoDV -e 6 -c 0 -i 26 -a 0 -x {3.3 4.1 -1 ------- null}
r -t 0.0372463302185826 -s 4 -d 5 -p rtProtoDV -e 6 -c 0 -i 19 -a 0 -x {4.1 5.1 -1 ------- null}
r -t 0.0372463302185826 -s 5 -d 0 -p rtProtoDV -e 6 -c 0 -i 20 -a 0 -x {5.1 0.2 -1 ------- null}
+ -t 0.0372463302185826 -s 0 -d 1 -p rtProtoDV -e 6 -c 0 -i 27 -a 0 -x {0.2 1.2 -1 ------- null}
- -t 0.0372463302185826 -s 0 -d 1 -p rtProtoDV -e 6 -c 0 -i 27 -a 0 -x {0.2 1.2 -1 ------- null}
h -t 0.0372463302185826 -s 0 -d 1 -p rtProtoDV -e 6 -c 0 -i 27 -a 0 -x {0.2 1.2 -1 ------- null}
+ -t 0.0372463302185826 -s 0 -d 5 -p rtProtoDV -e 6 -c 0 -i 28 -a 0 -x {0.2 5.1 -1 ------- null}
- -t 0.0372463302185826 -s 0 -d 5 -p rtProtoDV -e 6 -c 0 -i 28 -a 0 -x {0.2 5.1 -1 ------- null}
h -t 0.0372463302185826 -s 0 -d 5 -p rtProtoDV -e 6 -c 0 -i 28 -a 0 -x {0.2 5.1 -1 ------- null}
r -t 0.0372463302185826 -s 5 -d 1 -p rtProtoDV -e 6 -c 0 -i 21 -a 0 -x {5.1 1.2 -1 ------- null}
r -t 0.0372463302185826 -s 5 -d 4 -p rtProtoDV -e 6 -c 0 -i 22 -a 0 -x {5.1 4.1 -1 ------- null}
- -t 0.0372943302185826 -s 3 -d 2 -p rtProtoDV -e 6 -c 0 -i 25 -a 0 -x {3.3 2.1 -1 ------- null}
h -t 0.0372943302185826 -s 3 -d 2 -p rtProtoDV -e 6 -c 0 -i 25 -a 0 -x {3.3 2.1 -1 ------- null}
- -t 0.0372943302185826 -s 3 -d 4 -p rtProtoDV -e 6 -c 0 -i 26 -a 0 -x {3.3 4.1 -1 ------- null}
h -t 0.0372943302185826 -s 3 -d 4 -p rtProtoDV -e 6 -c 0 -i 26 -a 0 -x {3.3 4.1 -1 ------- null}
+ -t 0.04406133552271 -s 3 -d 2 -p rtProtoDV -e 6 -c 0 -i 29 -a 0 -x {3.3 2.1 -1 ------- null}
- -t 0.04406133552271 -s 3 -d 2 -p rtProtoDV -e 6 -c 0 -i 29 -a 0 -x {3.3 2.1 -1 ------- null}
h -t 0.04406133552271 -s 3 -d 2 -p rtProtoDV -e 6 -c 0 -i 29 -a 0 -x {3.3 2.1 -1 ------- null}
+ -t 0.04406133552271 -s 3 -d 4 -p rtProtoDV -e 6 -c 0 -i 30 -a 0 -x {3.3 4.1 -1 ------- null}
- -t 0.04406133552271 -s 3 -d 4 -p rtProtoDV -e 6 -c 0 -i 30 -a 0 -x {3.3 4.1 -1 ------- null}
h -t 0.04406133552271 -s 3 -d 4 -p rtProtoDV -e 6 -c 0 -i 30 -a 0 -x {3.3 4.1 -1 ------- null}
r -t 0.0472943302185826 -s 3 -d 2 -p rtProtoDV -e 6 -c 0 -i 23 -a 0 -x {3.3 2.1 -1 ------- null}
r -t 0.0472943302185826 -s 3 -d 4 -p rtProtoDV -e 6 -c 0 -i 24 -a 0 -x {3.3 4.1 -1 ------- null}
r -t 0.0472943302185826 -s 0 -d 1 -p rtProtoDV -e 6 -c 0 -i 27 -a 0 -x {0.2 1.2 -1 ------- null}
r -t 0.0472943302185826 -s 0 -d 5 -p rtProtoDV -e 6 -c 0 -i 28 -a 0 -x {0.2 5.1 -1 ------- null}
r -t 0.0473423302185826 -s 3 -d 2 -p rtProtoDV -e 6 -c 0 -i 25 -a 0 -x {3.3 2.1 -1 ------- null}
r -t 0.0473423302185826 -s 3 -d 4 -p rtProtoDV -e 6 -c 0 -i 26 -a 0 -x {3.3 4.1 -1 ------- null}
r -t 0.05410933552271 -s 3 -d 2 -p rtProtoDV -e 6 -c 0 -i 29 -a 0 -x {3.3 2.1 -1 ------- null}
r -t 0.05410933552271 -s 3 -d 4 -p rtProtoDV -e 6 -c 0 -i 30 -a 0 -x {3.3 4.1 -1 ------- null}
+ -t 0.22058669092161 -s 4 -d 1 -p rtProtoDV -e 6 -c 0 -i 31 -a 0 -x {4.1 1.2 -1 ------- null}
- -t 0.22058669092161 -s 4 -d 1 -p rtProtoDV -e 6 -c 0 -i 31 -a 0 -x {4.1 1.2 -1 ------- null}
h -t 0.22058669092161 -s 4 -d 1 -p rtProtoDV -e 6 -c 0 -i 31 -a 0 -x {4.1 1.2 -1 ------- null}
+ -t 0.22058669092161 -s 4 -d 2 -p rtProtoDV -e 6 -c 0 -i 32 -a 0 -x {4.1 2.1 -1 ------- null}
- -t 0.22058669092161 -s 4 -d 2 -p rtProtoDV -e 6 -c 0 -i 32 -a 0 -x {4.1 2.1 -1 ------- null}
h -t 0.22058669092161 -s 4 -d 2 -p rtProtoDV -e 6 -c 0 -i 32 -a 0 -x {4.1 2.1 -1 ------- null}
+ -t 0.22058669092161 -s 4 -d 3 -p rtProtoDV -e 6 -c 0 -i 33 -a 0 -x {4.1 3.3 -1 ------- null}
- -t 0.22058669092161 -s 4 -d 3 -p rtProtoDV -e 6 -c 0 -i 33 -a 0 -x {4.1 3.3 -1 ------- null}
h -t 0.22058669092161 -s 4 -d 3 -p rtProtoDV -e 6 -c 0 -i 33 -a 0 -x {4.1 3.3 -1 ------- null}
+ -t 0.22058669092161 -s 4 -d 5 -p rtProtoDV -e 6 -c 0 -i 34 -a 0 -x {4.1 5.1 -1 ------- null}
- -t 0.22058669092161 -s 4 -d 5 -p rtProtoDV -e 6 -c 0 -i 34 -a 0 -x {4.1 5.1 -1 ------- null}
h -t 0.22058669092161 -s 4 -d 5 -p rtProtoDV -e 6 -c 0 -i 34 -a 0 -x {4.1 5.1 -1 ------- null}
r -t 0.23063469092161 -s 4 -d 1 -p rtProtoDV -e 6 -c 0 -i 31 -a 0 -x {4.1 1.2 -1 ------- null}
r -t 0.23063469092161 -s 4 -d 2 -p rtProtoDV -e 6 -c 0 -i 32 -a 0 -x {4.1 2.1 -1 ------- null}
r -t 0.23063469092161 -s 4 -d 3 -p rtProtoDV -e 6 -c 0 -i 33 -a 0 -x {4.1 3.3 -1 ------- null}
r -t 0.23063469092161 -s 4 -d 5 -p rtProtoDV -e 6 -c 0 -i 34 -a 0 -x {4.1 5.1 -1 ------- null}
+ -t 0.277940357931862 -s 1 -d 0 -p rtProtoDV -e 6 -c 0 -i 35 -a 0 -x {1.2 0.2 -1 ------- null}
- -t 0.277940357931862 -s 1 -d 0 -p rtProtoDV -e 6 -c 0 -i 35 -a 0 -x {1.2 0.2 -1 ------- null}
h -t 0.277940357931862 -s 1 -d 0 -p rtProtoDV -e 6 -c 0 -i 35 -a 0 -x {1.2 0.2 -1 ------- null}
+ -t 0.277940357931862 -s 1 -d 2 -p rtProtoDV -e 6 -c 0 -i 36 -a 0 -x {1.2 2.1 -1 ------- null}
- -t 0.277940357931862 -s 1 -d 2 -p rtProtoDV -e 6 -c 0 -i 36 -a 0 -x {1.2 2.1 -1 ------- null}
h -t 0.277940357931862 -s 1 -d 2 -p rtProtoDV -e 6 -c 0 -i 36 -a 0 -x {1.2 2.1 -1 ------- null}
+ -t 0.277940357931862 -s 1 -d 4 -p rtProtoDV -e 6 -c 0 -i 37 -a 0 -x {1.2 4.1 -1 ------- null}
- -t 0.277940357931862 -s 1 -d 4 -p rtProtoDV -e 6 -c 0 -i 37 -a 0 -x {1.2 4.1 -1 ------- null}
h -t 0.277940357931862 -s 1 -d 4 -p rtProtoDV -e 6 -c 0 -i 37 -a 0 -x {1.2 4.1 -1 ------- null}
+ -t 0.277940357931862 -s 1 -d 5 -p rtProtoDV -e 6 -c 0 -i 38 -a 0 -x {1.2 5.1 -1 ------- null}
- -t 0.277940357931862 -s 1 -d 5 -p rtProtoDV -e 6 -c 0 -i 38 -a 0 -x {1.2 5.1 -1 ------- null}
h -t 0.277940357931862 -s 1 -d 5 -p rtProtoDV -e 6 -c 0 -i 38 -a 0 -x {1.2 5.1 -1 ------- null}
r -t 0.287988357931862 -s 1 -d 0 -p rtProtoDV -e 6 -c 0 -i 35 -a 0 -x {1.2 0.2 -1 ------- null}
r -t 0.287988357931862 -s 1 -d 2 -p rtProtoDV -e 6 -c 0 -i 36 -a 0 -x {1.2 2.1 -1 ------- null}
r -t 0.287988357931862 -s 1 -d 4 -p rtProtoDV -e 6 -c 0 -i 37 -a 0 -x {1.2 4.1 -1 ------- null}
r -t 0.287988357931862 -s 1 -d 5 -p rtProtoDV -e 6 -c 0 -i 38 -a 0 -x {1.2 5.1 -1 ------- null}
+ -t 0.399577726796073 -s 5 -d 0 -p rtProtoDV -e 6 -c 0 -i 39 -a 0 -x {5.1 0.2 -1 ------- null}
- -t 0.399577726796073 -s 5 -d 0 -p rtProtoDV -e 6 -c 0 -i 39 -a 0 -x {5.1 0.2 -1 ------- null}
h -t 0.399577726796073 -s 5 -d 0 -p rtProtoDV -e 6 -c 0 -i 39 -a 0 -x {5.1 0.2 -1 ------- null}
+ -t 0.399577726796073 -s 5 -d 1 -p rtProtoDV -e 6 -c 0 -i 40 -a 0 -x {5.1 1.2 -1 ------- null}
- -t 0.399577726796073 -s 5 -d 1 -p rtProtoDV -e 6 -c 0 -i 40 -a 0 -x {5.1 1.2 -1 ------- null}
h -t 0.399577726796073 -s 5 -d 1 -p rtProtoDV -e 6 -c 0 -i 40 -a 0 -x {5.1 1.2 -1 ------- null}
+ -t 0.399577726796073 -s 5 -d 4 -p rtProtoDV -e 6 -c 0 -i 41 -a 0 -x {5.1 4.1 -1 ------- null}
- -t 0.399577726796073 -s 5 -d 4 -p rtProtoDV -e 6 -c 0 -i 41 -a 0 -x {5.1 4.1 -1 ------- null}
h -t 0.399577726796073 -s 5 -d 4 -p rtProtoDV -e 6 -c 0 -i 41 -a 0 -x {5.1 4.1 -1 ------- null}
r -t 0.409625726796073 -s 5 -d 0 -p rtProtoDV -e 6 -c 0 -i 39 -a 0 -x {5.1 0.2 -1 ------- null}
r -t 0.409625726796073 -s 5 -d 1 -p rtProtoDV -e 6 -c 0 -i 40 -a 0 -x {5.1 1.2 -1 ------- null}
r -t 0.409625726796073 -s 5 -d 4 -p rtProtoDV -e 6 -c 0 -i 41 -a 0 -x {5.1 4.1 -1 ------- null}
+ -t 0.5 -s 0 -d 5 -p cbr -e 500 -c 1 -i 42 -a 1 -x {0.0 3.0 0 ------- null}
- -t 0.5 -s 0 -d 5 -p cbr -e 500 -c 1 -i 42 -a 1 -x {0.0 3.0 0 ------- null}
h -t 0.5 -s 0 -d 5 -p cbr -e 500 -c 1 -i 42 -a 1 -x {0.0 3.0 -1 ------- null}
+ -t 0.505 -s 0 -d 5 -p cbr -e 500 -c 1 -i 43 -a 1 -x {0.0 3.0 1 ------- null}
- -t 0.505 -s 0 -d 5 -p cbr -e 500 -c 1 -i 43 -a 1 -x {0.0 3.0 1 ------- null}
h -t 0.505 -s 0 -d 5 -p cbr -e 500 -c 1 -i 43 -a 1 -x {0.0 3.0 -1 ------- null}
+ -t 0.51 -s 0 -d 5 -p cbr -e 500 -c 1 -i 44 -a 1 -x {0.0 3.0 2 ------- null}
- -t 0.51 -s 0 -d 5 -p cbr -e 500 -c 1 -i 44 -a 1 -x {0.0 3.0 2 ------- null}
h -t 0.51 -s 0 -d 5 -p cbr -e 500 -c 1 -i 44 -a 1 -x {0.0 3.0 -1 ------- null}
r -t 0.514 -s 0 -d 5 -p cbr -e 500 -c 1 -i 42 -a 1 -x {0.0 3.0 0 ------- null}
+ -t 0.514 -s 5 -d 1 -p cbr -e 500 -c 1 -i 42 -a 1 -x {0.0 3.0 0 ------- null}
- -t 0.514 -s 5 -d 1 -p cbr -e 500 -c 1 -i 42 -a 1 -x {0.0 3.0 0 ------- null}
h -t 0.514 -s 5 -d 1 -p cbr -e 500 -c 1 -i 42 -a 1 -x {0.0 3.0 -1 ------- null}
+ -t 0.515 -s 0 -d 5 -p cbr -e 500 -c 1 -i 45 -a 1 -x {0.0 3.0 3 ------- null}
- -t 0.515 -s 0 -d 5 -p cbr -e 500 -c 1 -i 45 -a 1 -x {0.0 3.0 3 ------- null}
h -t 0.515 -s 0 -d 5 -p cbr -e 500 -c 1 -i 45 -a 1 -x {0.0 3.0 -1 ------- null}
r -t 0.519 -s 0 -d 5 -p cbr -e 500 -c 1 -i 43 -a 1 -x {0.0 3.0 1 ------- null}
+ -t 0.519 -s 5 -d 1 -p cbr -e 500 -c 1 -i 43 -a 1 -x {0.0 3.0 1 ------- null}
- -t 0.519 -s 5 -d 1 -p cbr -e 500 -c 1 -i 43 -a 1 -x {0.0 3.0 1 ------- null}
h -t 0.519 -s 5 -d 1 -p cbr -e 500 -c 1 -i 43 -a 1 -x {0.0 3.0 -1 ------- null}
+ -t 0.52 -s 0 -d 5 -p cbr -e 500 -c 1 -i 46 -a 1 -x {0.0 3.0 4 ------- null}
- -t 0.52 -s 0 -d 5 -p cbr -e 500 -c 1 -i 46 -a 1 -x {0.0 3.0 4 ------- null}
h -t 0.52 -s 0 -d 5 -p cbr -e 500 -c 1 -i 46 -a 1 -x {0.0 3.0 -1 ------- null}
r -t 0.524 -s 0 -d 5 -p cbr -e 500 -c 1 -i 44 -a 1 -x {0.0 3.0 2 ------- null}
+ -t 0.524 -s 5 -d 1 -p cbr -e 500 -c 1 -i 44 -a 1 -x {0.0 3.0 2 ------- null}
- -t 0.524 -s 5 -d 1 -p cbr -e 500 -c 1 -i 44 -a 1 -x {0.0 3.0 2 ------- null}
h -t 0.524 -s 5 -d 1 -p cbr -e 500 -c 1 -i 44 -a 1 -x {0.0 3.0 -1 ------- null}
+ -t 0.525 -s 0 -d 5 -p cbr -e 500 -c 1 -i 47 -a 1 -x {0.0 3.0 5 ------- null}
- -t 0.525 -s 0 -d 5 -p cbr -e 500 -c 1 -i 47 -a 1 -x {0.0 3.0 5 ------- null}
h -t 0.525 -s 0 -d 5 -p cbr -e 500 -c 1 -i 47 -a 1 -x {0.0 3.0 -1 ------- null}
r -t 0.528 -s 5 -d 1 -p cbr -e 500 -c 1 -i 42 -a 1 -x {0.0 3.0 0 ------- null}
+ -t 0.528 -s 1 -d 2 -p cbr -e 500 -c 1 -i 42 -a 1 -x {0.0 3.0 0 ------- null}
- -t 0.528 -s 1 -d 2 -p cbr -e 500 -c 1 -i 42 -a 1 -x {0.0 3.0 0 ------- null}
h -t 0.528 -s 1 -d 2 -p cbr -e 500 -c 1 -i 42 -a 1 -x {0.0 3.0 -1 ------- null}
r -t 0.529 -s 0 -d 5 -p cbr -e 500 -c 1 -i 45 -a 1 -x {0.0 3.0 3 ------- null}
+ -t 0.529 -s 5 -d 1 -p cbr -e 500 -c 1 -i 45 -a 1 -x {0.0 3.0 3 ------- null}
- -t 0.529 -s 5 -d 1 -p cbr -e 500 -c 1 -i 45 -a 1 -x {0.0 3.0 3 ------- null}
h -t 0.529 -s 5 -d 1 -p cbr -e 500 -c 1 -i 45 -a 1 -x {0.0 3.0 -1 ------- null}
+ -t 0.53 -s 0 -d 5 -p cbr -e 500 -c 1 -i 48 -a 1 -x {0.0 3.0 6 ------- null}
- -t 0.53 -s 0 -d 5 -p cbr -e 500 -c 1 -i 48 -a 1 -x {0.0 3.0 6 ------- null}
h -t 0.53 -s 0 -d 5 -p cbr -e 500 -c 1 -i 48 -a 1 -x {0.0 3.0 -1 ------- null}
r -t 0.533 -s 5 -d 1 -p cbr -e 500 -c 1 -i 43 -a 1 -x {0.0 3.0 1 ------- null}
+ -t 0.533 -s 1 -d 2 -p cbr -e 500 -c 1 -i 43 -a 1 -x {0.0 3.0 1 ------- null}
- -t 0.533 -s 1 -d 2 -p cbr -e 500 -c 1 -i 43 -a 1 -x {0.0 3.0 1 ------- null}
h -t 0.533 -s 1 -d 2 -p cbr -e 500 -c 1 -i 43 -a 1 -x {0.0 3.0 -1 ------- null}
r -t 0.534 -s 0 -d 5 -p cbr -e 500 -c 1 -i 46 -a 1 -x {0.0 3.0 4 ------- null}
+ -t 0.534 -s 5 -d 1 -p cbr -e 500 -c 1 -i 46 -a 1 -x {0.0 3.0 4 ------- null}
- -t 0.534 -s 5 -d 1 -p cbr -e 500 -c 1 -i 46 -a 1 -x {0.0 3.0 4 ------- null}
h -t 0.534 -s 5 -d 1 -p cbr -e 500 -c 1 -i 46 -a 1 -x {0.0 3.0 -1 ------- null}
+ -t 0.535 -s 0 -d 5 -p cbr -e 500 -c 1 -i 49 -a 1 -x {0.0 3.0 7 ------- null}
- -t 0.535 -s 0 -d 5 -p cbr -e 500 -c 1 -i 49 -a 1 -x {0.0 3.0 7 ------- null}
h -t 0.535 -s 0 -d 5 -p cbr -e 500 -c 1 -i 49 -a 1 -x {0.0 3.0 -1 ------- null}
r -t 0.538 -s 5 -d 1 -p cbr -e 500 -c 1 -i 44 -a 1 -x {0.0 3.0 2 ------- null}
+ -t 0.538 -s 1 -d 2 -p cbr -e 500 -c 1 -i 44 -a 1 -x {0.0 3.0 2 ------- null}
- -t 0.538 -s 1 -d 2 -p cbr -e 500 -c 1 -i 44 -a 1 -x {0.0 3.0 2 ------- null}
h -t 0.538 -s 1 -d 2 -p cbr -e 500 -c 1 -i 44 -a 1 -x {0.0 3.0 -1 ------- null}
r -t 0.539 -s 0 -d 5 -p cbr -e 500 -c 1 -i 47 -a 1 -x {0.0 3.0 5 ------- null}
+ -t 0.539 -s 5 -d 1 -p cbr -e 500 -c 1 -i 47 -a 1 -x {0.0 3.0 5 ------- null}
- -t 0.539 -s 5 -d 1 -p cbr -e 500 -c 1 -i 47 -a 1 -x {0.0 3.0 5 ------- null}
h -t 0.539 -s 5 -d 1 -p cbr -e 500 -c 1 -i 47 -a 1 -x {0.0 3.0 -1 ------- null}
+ -t 0.54 -s 0 -d 5 -p cbr -e 500 -c 1 -i 50 -a 1 -x {0.0 3.0 8 ------- null}
- -t 0.54 -s 0 -d 5 -p cbr -e 500 -c 1 -i 50 -a 1 -x {0.0 3.0 8 ------- null}
h -t 0.54 -s 0 -d 5 -p cbr -e 500 -c 1 -i 50 -a 1 -x {0.0 3.0 -1 ------- null}
r -t 0.542 -s 1 -d 2 -p cbr -e 500 -c 1 -i 42 -a 1 -x {0.0 3.0 0 ------- null}
+ -t 0.542 -s 2 -d 3 -p cbr -e 500 -c 1 -i 42 -a 1 -x {0.0 3.0 0 ------- null}
- -t 0.542 -s 2 -d 3 -p cbr -e 500 -c 1 -i 42 -a 1 -x {0.0 3.0 0 ------- null}
h -t 0.542 -s 2 -d 3 -p cbr -e 500 -c 1 -i 42 -a 1 -x {0.0 3.0 -1 ------- null}
r -t 0.543 -s 5 -d 1 -p cbr -e 500 -c 1 -i 45 -a 1 -x {0.0 3.0 3 ------- null}
+ -t 0.543 -s 1 -d 2 -p cbr -e 500 -c 1 -i 45 -a 1 -x {0.0 3.0 3 ------- null}
- -t 0.543 -s 1 -d 2 -p cbr -e 500 -c 1 -i 45 -a 1 -x {0.0 3.0 3 ------- null}
h -t 0.543 -s 1 -d 2 -p cbr -e 500 -c 1 -i 45 -a 1 -x {0.0 3.0 -1 ------- null}
r -t 0.544 -s 0 -d 5 -p cbr -e 500 -c 1 -i 48 -a 1 -x {0.0 3.0 6 ------- null}
+ -t 0.544 -s 5 -d 1 -p cbr -e 500 -c 1 -i 48 -a 1 -x {0.0 3.0 6 ------- null}
- -t 0.544 -s 5 -d 1 -p cbr -e 500 -c 1 -i 48 -a 1 -x {0.0 3.0 6 ------- null}
h -t 0.544 -s 5 -d 1 -p cbr -e 500 -c 1 -i 48 -a 1 -x {0.0 3.0 -1 ------- null}
+ -t 0.545 -s 0 -d 5 -p cbr -e 500 -c 1 -i 51 -a 1 -x {0.0 3.0 9 ------- null}
- -t 0.545 -s 0 -d 5 -p cbr -e 500 -c 1 -i 51 -a 1 -x {0.0 3.0 9 ------- null}
h -t 0.545 -s 0 -d 5 -p cbr -e 500 -c 1 -i 51 -a 1 -x {0.0 3.0 -1 ------- null}
r -t 0.547 -s 1 -d 2 -p cbr -e 500 -c 1 -i 43 -a 1 -x {0.0 3.0 1 ------- null}
+ -t 0.547 -s 2 -d 3 -p cbr -e 500 -c 1 -i 43 -a 1 -x {0.0 3.0 1 ------- null}
- -t 0.547 -s 2 -d 3 -p cbr -e 500 -c 1 -i 43 -a 1 -x {0.0 3.0 1 ------- null}
h -t 0.547 -s 2 -d 3 -p cbr -e 500 -c 1 -i 43 -a 1 -x {0.0 3.0 -1 ------- null}
r -t 0.548 -s 5 -d 1 -p cbr -e 500 -c 1 -i 46 -a 1 -x {0.0 3.0 4 ------- null}
+ -t 0.548 -s 1 -d 2 -p cbr -e 500 -c 1 -i 46 -a 1 -x {0.0 3.0 4 ------- null}
- -t 0.548 -s 1 -d 2 -p cbr -e 500 -c 1 -i 46 -a 1 -x {0.0 3.0 4 ------- null}
h -t 0.548 -s 1 -d 2 -p cbr -e 500 -c 1 -i 46 -a 1 -x {0.0 3.0 -1 ------- null}
r -t 0.549 -s 0 -d 5 -p cbr -e 500 -c 1 -i 49 -a 1 -x {0.0 3.0 7 ------- null}
+ -t 0.549 -s 5 -d 1 -p cbr -e 500 -c 1 -i 49 -a 1 -x {0.0 3.0 7 ------- null}
- -t 0.549 -s 5 -d 1 -p cbr -e 500 -c 1 -i 49 -a 1 -x {0.0 3.0 7 ------- null}
h -t 0.549 -s 5 -d 1 -p cbr -e 500 -c 1 -i 49 -a 1 -x {0.0 3.0 -1 ------- null}
+ -t 0.55 -s 0 -d 5 -p cbr -e 500 -c 1 -i 52 -a 1 -x {0.0 3.0 10 ------- null}
- -t 0.55 -s 0 -d 5 -p cbr -e 500 -c 1 -i 52 -a 1 -x {0.0 3.0 10 ------- null}
h -t 0.55 -s 0 -d 5 -p cbr -e 500 -c 1 -i 52 -a 1 -x {0.0 3.0 -1 ------- null}
r -t 0.552 -s 1 -d 2 -p cbr -e 500 -c 1 -i 44 -a 1 -x {0.0 3.0 2 ------- null}
+ -t 0.552 -s 2 -d 3 -p cbr -e 500 -c 1 -i 44 -a 1 -x {0.0 3.0 2 ------- null}
- -t 0.552 -s 2 -d 3 -p cbr -e 500 -c 1 -i 44 -a 1 -x {0.0 3.0 2 ------- null}
h -t 0.552 -s 2 -d 3 -p cbr -e 500 -c 1 -i 44 -a 1 -x {0.0 3.0 -1 ------- null}
r -t 0.553 -s 5 -d 1 -p cbr -e 500 -c 1 -i 47 -a 1 -x {0.0 3.0 5 ------- null}
+ -t 0.553 -s 1 -d 2 -p cbr -e 500 -c 1 -i 47 -a 1 -x {0.0 3.0 5 ------- null}
- -t 0.553 -s 1 -d 2 -p cbr -e 500 -c 1 -i 47 -a 1 -x {0.0 3.0 5 ------- null}
h -t 0.553 -s 1 -d 2 -p cbr -e 500 -c 1 -i 47 -a 1 -x {0.0 3.0 -1 ------- null}
r -t 0.554 -s 0 -d 5 -p cbr -e 500 -c 1 -i 50 -a 1 -x {0.0 3.0 8 ------- null}
+ -t 0.554 -s 5 -d 1 -p cbr -e 500 -c 1 -i 50 -a 1 -x {0.0 3.0 8 ------- null}
- -t 0.554 -s 5 -d 1 -p cbr -e 500 -c 1 -i 50 -a 1 -x {0.0 3.0 8 ------- null}
h -t 0.554 -s 5 -d 1 -p cbr -e 500 -c 1 -i 50 -a 1 -x {0.0 3.0 -1 ------- null}
+ -t 0.555 -s 0 -d 5 -p cbr -e 500 -c 1 -i 53 -a 1 -x {0.0 3.0 11 ------- null}
- -t 0.555 -s 0 -d 5 -p cbr -e 500 -c 1 -i 53 -a 1 -x {0.0 3.0 11 ------- null}
h -t 0.555 -s 0 -d 5 -p cbr -e 500 -c 1 -i 53 -a 1 -x {0.0 3.0 -1 ------- null}
r -t 0.556 -s 2 -d 3 -p cbr -e 500 -c 1 -i 42 -a 1 -x {0.0 3.0 0 ------- null}
r -t 0.557 -s 1 -d 2 -p cbr -e 500 -c 1 -i 45 -a 1 -x {0.0 3.0 3 ------- null}
+ -t 0.557 -s 2 -d 3 -p cbr -e 500 -c 1 -i 45 -a 1 -x {0.0 3.0 3 ------- null}
- -t 0.557 -s 2 -d 3 -p cbr -e 500 -c 1 -i 45 -a 1 -x {0.0 3.0 3 ------- null}
h -t 0.557 -s 2 -d 3 -p cbr -e 500 -c 1 -i 45 -a 1 -x {0.0 3.0 -1 ------- null}
r -t 0.558 -s 5 -d 1 -p cbr -e 500 -c 1 -i 48 -a 1 -x {0.0 3.0 6 ------- null}
+ -t 0.558 -s 1 -d 2 -p cbr -e 500 -c 1 -i 48 -a 1 -x {0.0 3.0 6 ------- null}
- -t 0.558 -s 1 -d 2 -p cbr -e 500 -c 1 -i 48 -a 1 -x {0.0 3.0 6 ------- null}
h -t 0.558 -s 1 -d 2 -p cbr -e 500 -c 1 -i 48 -a 1 -x {0.0 3.0 -1 ------- null}
r -t 0.559 -s 0 -d 5 -p cbr -e 500 -c 1 -i 51 -a 1 -x {0.0 3.0 9 ------- null}
+ -t 0.559 -s 5 -d 1 -p cbr -e 500 -c 1 -i 51 -a 1 -x {0.0 3.0 9 ------- null}
- -t 0.559 -s 5 -d 1 -p cbr -e 500 -c 1 -i 51 -a 1 -x {0.0 3.0 9 ------- null}
h -t 0.559 -s 5 -d 1 -p cbr -e 500 -c 1 -i 51 -a 1 -x {0.0 3.0 -1 ------- null}
+ -t 0.56 -s 0 -d 5 -p cbr -e 500 -c 1 -i 54 -a 1 -x {0.0 3.0 12 ------- null}
- -t 0.56 -s 0 -d 5 -p cbr -e 500 -c 1 -i 54 -a 1 -x {0.0 3.0 12 ------- null}
h -t 0.56 -s 0 -d 5 -p cbr -e 500 -c 1 -i 54 -a 1 -x {0.0 3.0 -1 ------- null}
r -t 0.561 -s 2 -d 3 -p cbr -e 500 -c 1 -i 43 -a 1 -x {0.0 3.0 1 ------- null}
r -t 0.562 -s 1 -d 2 -p cbr -e 500 -c 1 -i 46 -a 1 -x {0.0 3.0 4 ------- null}
+ -t 0.562 -s 2 -d 3 -p cbr -e 500 -c 1 -i 46 -a 1 -x {0.0 3.0 4 ------- null}
- -t 0.562 -s 2 -d 3 -p cbr -e 500 -c 1 -i 46 -a 1 -x {0.0 3.0 4 ------- null}
h -t 0.562 -s 2 -d 3 -p cbr -e 500 -c 1 -i 46 -a 1 -x {0.0 3.0 -1 ------- null}
r -t 0.563 -s 5 -d 1 -p cbr -e 500 -c 1 -i 49 -a 1 -x {0.0 3.0 7 ------- null}
+ -t 0.563 -s 1 -d 2 -p cbr -e 500 -c 1 -i 49 -a 1 -x {0.0 3.0 7 ------- null}
- -t 0.563 -s 1 -d 2 -p cbr -e 500 -c 1 -i 49 -a 1 -x {0.0 3.0 7 ------- null}
h -t 0.563 -s 1 -d 2 -p cbr -e 500 -c 1 -i 49 -a 1 -x {0.0 3.0 -1 ------- null}
r -t 0.564 -s 0 -d 5 -p cbr -e 500 -c 1 -i 52 -a 1 -x {0.0 3.0 10 ------- null}
+ -t 0.564 -s 5 -d 1 -p cbr -e 500 -c 1 -i 52 -a 1 -x {0.0 3.0 10 ------- null}
- -t 0.564 -s 5 -d 1 -p cbr -e 500 -c 1 -i 52 -a 1 -x {0.0 3.0 10 ------- null}
h -t 0.564 -s 5 -d 1 -p cbr -e 500 -c 1 -i 52 -a 1 -x {0.0 3.0 -1 ------- null}
+ -t 0.565 -s 0 -d 5 -p cbr -e 500 -c 1 -i 55 -a 1 -x {0.0 3.0 13 ------- null}
- -t 0.565 -s 0 -d 5 -p cbr -e 500 -c 1 -i 55 -a 1 -x {0.0 3.0 13 ------- null}
h -t 0.565 -s 0 -d 5 -p cbr -e 500 -c 1 -i 55 -a 1 -x {0.0 3.0 -1 ------- null}
r -t 0.566 -s 2 -d 3 -p cbr -e 500 -c 1 -i 44 -a 1 -x {0.0 3.0 2 ------- null}
r -t 0.567 -s 1 -d 2 -p cbr -e 500 -c 1 -i 47 -a 1 -x {0.0 3.0 5 ------- null}
+ -t 0.567 -s 2 -d 3 -p cbr -e 500 -c 1 -i 47 -a 1 -x {0.0 3.0 5 ------- null}
- -t 0.567 -s 2 -d 3 -p cbr -e 500 -c 1 -i 47 -a 1 -x {0.0 3.0 5 ------- null}
h -t 0.567 -s 2 -d 3 -p cbr -e 500 -c 1 -i 47 -a 1 -x {0.0 3.0 -1 ------- null}
r -t 0.568 -s 5 -d 1 -p cbr -e 500 -c 1 -i 50 -a 1 -x {0.0 3.0 8 ------- null}
+ -t 0.568 -s 1 -d 2 -p cbr -e 500 -c 1 -i 50 -a 1 -x {0.0 3.0 8 ------- null}
- -t 0.568 -s 1 -d 2 -p cbr -e 500 -c 1 -i 50 -a 1 -x {0.0 3.0 8 ------- null}
h -t 0.568 -s 1 -d 2 -p cbr -e 500 -c 1 -i 50 -a 1 -x {0.0 3.0 -1 ------- null}
r -t 0.569 -s 0 -d 5 -p cbr -e 500 -c 1 -i 53 -a 1 -x {0.0 3.0 11 ------- null}
+ -t 0.569 -s 5 -d 1 -p cbr -e 500 -c 1 -i 53 -a 1 -x {0.0 3.0 11 ------- null}
- -t 0.569 -s 5 -d 1 -p cbr -e 500 -c 1 -i 53 -a 1 -x {0.0 3.0 11 ------- null}
h -t 0.569 -s 5 -d 1 -p cbr -e 500 -c 1 -i 53 -a 1 -x {0.0 3.0 -1 ------- null}
+ -t 0.57 -s 0 -d 5 -p cbr -e 500 -c 1 -i 56 -a 1 -x {0.0 3.0 14 ------- null}
- -t 0.57 -s 0 -d 5 -p cbr -e 500 -c 1 -i 56 -a 1 -x {0.0 3.0 14 ------- null}
h -t 0.57 -s 0 -d 5 -p cbr -e 500 -c 1 -i 56 -a 1 -x {0.0 3.0 -1 ------- null}
r -t 0.571 -s 2 -d 3 -p cbr -e 500 -c 1 -i 45 -a 1 -x {0.0 3.0 3 ------- null}
r -t 0.572 -s 1 -d 2 -p cbr -e 500 -c 1 -i 48 -a 1 -x {0.0 3.0 6 ------- null}
+ -t 0.572 -s 2 -d 3 -p cbr -e 500 -c 1 -i 48 -a 1 -x {0.0 3.0 6 ------- null}
- -t 0.572 -s 2 -d 3 -p cbr -e 500 -c 1 -i 48 -a 1 -x {0.0 3.0 6 ------- null}
h -t 0.572 -s 2 -d 3 -p cbr -e 500 -c 1 -i 48 -a 1 -x {0.0 3.0 -1 ------- null}
r -t 0.573 -s 5 -d 1 -p cbr -e 500 -c 1 -i 51 -a 1 -x {0.0 3.0 9 ------- null}